 Entering Gaussian System, Link 0=g03
 Input=but.com
 Output=but.log
 Initial command:
 /home/software/gaussian/g03/l1.exe /state/partition1/g03-grichings/Gau-1341.inp -scrdir=/state/partition1/g03-grichings/
 Entering Link 1 = /home/software/gaussian/g03/l1.exe PID=      1350.
  
 Copyright (c) 1988,1990,1992,1993,1995,1998,2003,2004, Gaussian, Inc.
                  All Rights Reserved.
  
 This is the Gaussian(R) 03 program.  It is based on the
 the Gaussian(R) 98 system (copyright 1998, Gaussian, Inc.),
 the Gaussian(R) 94 system (copyright 1995, Gaussian, Inc.),
 the Gaussian 92(TM) system (copyright 1992, Gaussian, Inc.),
 the Gaussian 90(TM) system (copyright 1990, Gaussian, Inc.),
 the Gaussian 88(TM) system (copyright 1988, Gaussian, Inc.),
 the Gaussian 86(TM) system (copyright 1986, Carnegie Mellon
 University), and the Gaussian 82(TM) system (copyright 1983,
 Carnegie Mellon University). Gaussian is a federally registered
 trademark of Gaussian, Inc.
  
 This software contains proprietary and confidential information,
 including trade secrets, belonging to Gaussian, Inc.
  
 This software is provided under written license and may be
 used, copied, transmitted, or stored only in accord with that
 written license.
  
 The following legend is applicable only to US Government
 contracts under FAR:
  
                    RESTRICTED RIGHTS LEGEND
  
 Use, reproduction and disclosure by the US Government is
 subject to restrictions as set forth in subparagraphs (a)
 and (c) of the Commercial Computer Software - Restricted
 Rights clause in FAR 52.227-19.
  
 Gaussian, Inc.
 340 Quinnipiac St., Bldg. 40, Wallingford CT 06492
  
  
 ---------------------------------------------------------------
 Warning -- This program may not be used in any manner that
 competes with the business of Gaussian, Inc. or will provide
 assistance to any competitor of Gaussian, Inc.  The licensee
 of this program is prohibited from giving any competitor of
 Gaussian, Inc. access to this program.  By using this program,
 the user acknowledges that Gaussian, Inc. is engaged in the
 business of creating and licensing software in the field of
 computational chemistry and represents and warrants to the
 licensee that it is not a competitor of Gaussian, Inc. and that
 it will not use this program in any manner prohibited above.
 ---------------------------------------------------------------
  

 Cite this work as:
 Gaussian 03, Revision C.02,
 M. J. Frisch, G. W. Trucks, H. B. Schlegel, G. E. Scuseria, 
 M. A. Robb, J. R. Cheeseman, J. A. Montgomery, Jr., T. Vreven, 
 K. N. Kudin, J. C. Burant, J. M. Millam, S. S. Iyengar, J. Tomasi, 
 V. Barone, B. Mennucci, M. Cossi, G. Scalmani, N. Rega, 
 G. A. Petersson, H. Nakatsuji, M. Hada, M. Ehara, K. Toyota, 
 R. Fukuda, J. Hasegawa, M. Ishida, T. Nakajima, Y. Honda, O. Kitao, 
 H. Nakai, M. Klene, X. Li, J. E. Knox, H. P. Hratchian, J. B. Cross, 
 C. Adamo, J. Jaramillo, R. Gomperts, R. E. Stratmann, O. Yazyev, 
 A. J. Austin, R. Cammi, C. Pomelli, J. W. Ochterski, P. Y. Ayala, 
 K. Morokuma, G. A. Voth, P. Salvador, J. J. Dannenberg, 
 V. G. Zakrzewski, S. Dapprich, A. D. Daniels, M. C. Strain, 
 O. Farkas, D. K. Malick, A. D. Rabuck, K. Raghavachari, 
 J. B. Foresman, J. V. Ortiz, Q. Cui, A. G. Baboul, S. Clifford, 
 J. Cioslowski, B. B. Stefanov, G. Liu, A. Liashenko, P. Piskorz, 
 I. Komaromi, R. L. Martin, D. J. Fox, T. Keith, M. A. Al-Laham, 
 C. Y. Peng, A. Nanayakkara, M. Challacombe, P. M. W. Gill, 
 B. Johnson, W. Chen, M. W. Wong, C. Gonzalez, and J. A. Pople, 
 Gaussian, Inc., Wallingford CT, 2004.
 
 ******************************************
 Gaussian 03:  AM64L-G03RevC.02 12-Jun-2004
                21-Aug-2014 
 ******************************************
 %chk=but.chk
 -----------------------------------------------------------
 #P CASSCF(6,6,nroot=1)/3-21G* freq=hpmodes gfinput pop=full
 -----------------------------------------------------------
 1/10=4,30=1,38=1/1,3;
 2/17=6,18=5,40=1/2;
 3/5=5,7=1,16=1,24=10,25=1,32=1/1,2,3;
 4/7=6,17=6,18=6/1,5;
 5/5=2,17=1000200,28=1,38=5/10;
 8/6=4,10=90,11=11/1;
 11/42=1,45=1/1;
 10/6=1,28=1/3;
 6/7=3,18=1,28=1/1;
 7/8=11,10=1,25=1/1,2,3,16;
 1/10=4,30=1/3;
 99//99;
 Leave Link    1 at Thu Aug 21 17:09:25 2014, MaxMem=          0 cpu:       0.1
 (Enter /home/software/gaussian/g03/l101.exe)
 ----------
 butatriene
 ----------
 Symbolic Z-matrix:
 Charge =  0 Multiplicity = 1
 6                     0.        0.        1.95995 
 6                     0.        0.        0.63095 
 6                     0.        0.       -0.63095 
 6                     0.        0.       -1.95995 
 1                     0.        0.91785  -2.51568 
 1                     0.       -0.91785  -2.51568 
 1                     0.        0.91785   2.51568 
 1                     0.       -0.91785   2.51568 
 
                    Isotopes and Nuclear Properties:

  Atom         1           2           3           4           5           6           7           8
 IAtWgt=          12          12          12          12           1           1           1           1
 AtmWgt=  12.0000000  12.0000000  12.0000000  12.0000000   1.0078250   1.0078250   1.0078250   1.0078250
 IAtSpn=           0           0           0           0           1           1           1           1
 AtZEff=   0.0000000   0.0000000   0.0000000   0.0000000   0.0000000   0.0000000   0.0000000   0.0000000
 AtQMom=   0.0000000   0.0000000   0.0000000   0.0000000   0.0000000   0.0000000   0.0000000   0.0000000
 AtGFac=   0.0000000   0.0000000   0.0000000   0.0000000   2.7928460   2.7928460   2.7928460   2.7928460
 Leave Link  101 at Thu Aug 21 17:09:25 2014, MaxMem=    6291456 cpu:       0.0
 (Enter /home/software/gaussian/g03/l103.exe)

 GradGradGradGradGradGradGradGradGradGradGradGradGradGradGradGradGradGrad
 Berny optimization.
 Initialization pass.
 Trust Radius=3.00D-01 FncErr=1.00D-07 GrdErr=1.00D-07
 Number of steps in this run=   2 maximum allowed number of steps=   2.
 GradGradGradGradGradGradGradGradGradGradGradGradGradGradGradGradGradGrad

 Leave Link  103 at Thu Aug 21 17:09:25 2014, MaxMem=    6291456 cpu:       0.0
 (Enter /home/software/gaussian/g03/l202.exe)
                          Input orientation:                          
 ---------------------------------------------------------------------
 Center     Atomic     Atomic              Coordinates (Angstroms)
 Number     Number      Type              X           Y           Z
 ---------------------------------------------------------------------
    1          6             0        0.000000    0.000000    1.959948
    2          6             0        0.000000    0.000000    0.630953
    3          6             0        0.000000    0.000000   -0.630953
    4          6             0        0.000000    0.000000   -1.959948
    5          1             0        0.000000    0.917846   -2.515682
    6          1             0        0.000000   -0.917846   -2.515682
    7          1             0        0.000000    0.917846    2.515682
    8          1             0        0.000000   -0.917846    2.515682
 ---------------------------------------------------------------------
                    Distance matrix (angstroms):
                    1          2          3          4          5
     1  C    0.000000
     2  C    1.328995   0.000000
     3  C    2.590901   1.261906   0.000000
     4  C    3.919896   2.590901   1.328995   0.000000
     5  H    4.568775   3.277766   2.096341   1.072978   0.000000
     6  H    4.568775   3.277766   2.096341   1.072978   1.835692
     7  H    1.072978   2.096341   3.277766   4.568775   5.031364
     8  H    1.072978   2.096341   3.277766   4.568775   5.355781
                    6          7          8
     6  H    0.000000
     7  H    5.355781   0.000000
     8  H    5.031364   1.835692   0.000000
 Stoichiometry    C4H4
 Framework group  D2H[C2"(CC.CC),SG(H4)]
 Deg. of freedom     4
 Full point group                 D2H     NOp   8
 Largest Abelian subgroup         D2H     NOp   8
 Largest concise Abelian subgroup D2      NOp   4
                         Standard orientation:                         
 ---------------------------------------------------------------------
 Center     Atomic     Atomic              Coordinates (Angstroms)
 Number     Number      Type              X           Y           Z
 ---------------------------------------------------------------------
    1          6             0        0.000000    0.000000    1.959948
    2          6             0        0.000000    0.000000    0.630953
    3          6             0        0.000000    0.000000   -0.630953
    4          6             0        0.000000    0.000000   -1.959948
    5          1             0        0.000000    0.917846   -2.515682
    6          1             0        0.000000   -0.917846   -2.515682
    7          1             0        0.000000    0.917846    2.515682
    8          1             0        0.000000   -0.917846    2.515682
 ---------------------------------------------------------------------
 Rotational constants (GHZ):    148.8101049      3.9712116      3.8679887
 Leave Link  202 at Thu Aug 21 17:09:25 2014, MaxMem=    6291456 cpu:       0.0
 (Enter /home/software/gaussian/g03/l301.exe)
 Standard basis: 3-21G* (6D, 7F)
 AO basis set in the form of general basis input:
  1 0
 S   3 1.00       0.000000000000
      0.1722560000D+03  0.6176690738D-01
      0.2591090000D+02  0.3587940429D+00
      0.5533350000D+01  0.7007130837D+00
 SP   2 1.00       0.000000000000
      0.3664980000D+01 -0.3958951621D+00  0.2364599466D+00
      0.7705450000D+00  0.1215834356D+01  0.8606188057D+00
 SP   1 1.00       0.000000000000
      0.1958570000D+00  0.1000000000D+01  0.1000000000D+01
 ****
  2 0
 S   3 1.00       0.000000000000
      0.1722560000D+03  0.6176690738D-01
      0.2591090000D+02  0.3587940429D+00
      0.5533350000D+01  0.7007130837D+00
 SP   2 1.00       0.000000000000
      0.3664980000D+01 -0.3958951621D+00  0.2364599466D+00
      0.7705450000D+00  0.1215834356D+01  0.8606188057D+00
 SP   1 1.00       0.000000000000
      0.1958570000D+00  0.1000000000D+01  0.1000000000D+01
 ****
  3 0
 S   3 1.00       0.000000000000
      0.1722560000D+03  0.6176690738D-01
      0.2591090000D+02  0.3587940429D+00
      0.5533350000D+01  0.7007130837D+00
 SP   2 1.00       0.000000000000
      0.3664980000D+01 -0.3958951621D+00  0.2364599466D+00
      0.7705450000D+00  0.1215834356D+01  0.8606188057D+00
 SP   1 1.00       0.000000000000
      0.1958570000D+00  0.1000000000D+01  0.1000000000D+01
 ****
  4 0
 S   3 1.00       0.000000000000
      0.1722560000D+03  0.6176690738D-01
      0.2591090000D+02  0.3587940429D+00
      0.5533350000D+01  0.7007130837D+00
 SP   2 1.00       0.000000000000
      0.3664980000D+01 -0.3958951621D+00  0.2364599466D+00
      0.7705450000D+00  0.1215834356D+01  0.8606188057D+00
 SP   1 1.00       0.000000000000
      0.1958570000D+00  0.1000000000D+01  0.1000000000D+01
 ****
  5 0
 S   2 1.00       0.000000000000
      0.5447178000D+01  0.1562849787D+00
      0.8245472400D+00  0.9046908767D+00
 S   1 1.00       0.000000000000
      0.1831915800D+00  0.1000000000D+01
 ****
  6 0
 S   2 1.00       0.000000000000
      0.5447178000D+01  0.1562849787D+00
      0.8245472400D+00  0.9046908767D+00
 S   1 1.00       0.000000000000
      0.1831915800D+00  0.1000000000D+01
 ****
  7 0
 S   2 1.00       0.000000000000
      0.5447178000D+01  0.1562849787D+00
      0.8245472400D+00  0.9046908767D+00
 S   1 1.00       0.000000000000
      0.1831915800D+00  0.1000000000D+01
 ****
  8 0
 S   2 1.00       0.000000000000
      0.5447178000D+01  0.1562849787D+00
      0.8245472400D+00  0.9046908767D+00
 S   1 1.00       0.000000000000
      0.1831915800D+00  0.1000000000D+01
 ****

 There are    12 symmetry adapted basis functions of AG  symmetry.
 There are     0 symmetry adapted basis functions of B1G symmetry.
 There are     4 symmetry adapted basis functions of B2G symmetry.
 There are     6 symmetry adapted basis functions of B3G symmetry.
 There are     0 symmetry adapted basis functions of AU  symmetry.
 There are    12 symmetry adapted basis functions of B1U symmetry.
 There are     6 symmetry adapted basis functions of B2U symmetry.
 There are     4 symmetry adapted basis functions of B3U symmetry.
 Integral buffers will be    131072 words long.
 Regular integral format.
 Two-electron integral symmetry is turned off.
    44 basis functions,    72 primitive gaussians,    44 cartesian basis functions
    14 alpha electrons       14 beta electrons
       nuclear repulsion energy        88.8645984046 Hartrees.
 IExCor=   0 DFT=F Ex=HF Corr=None ExCW=0 ScaHFX=  1.000000
 ScaDFX=  1.000000  1.000000  1.000000  1.000000
 IRadAn=      0 IRanWt=     -1 IRanGd=            0 ICorTp=0
 NAtoms=    8 NActive=    8 NUniq=    3 SFac= 5.66D+00 NAtFMM=   60 Big=F
 Leave Link  301 at Thu Aug 21 17:09:25 2014, MaxMem=    6291456 cpu:       0.0
 (Enter /home/software/gaussian/g03/l302.exe)
 NPDir=0 NMtPBC=     1 NCelOv=     1 NCel=       1 NClECP=     1 NCelD=      1
         NCelK=      1 NCelE2=     1 NClLst=     1 CellRange=     0.0.
 One-electron integrals computed using PRISM.
 The smallest eigenvalue of the overlap matrix is  6.738D-04
 NBasis=    44 RedAO= F  NBF=    12     0     4     6     0    12     6     4
 NBsUse=    44 1.00D-04 NBFU=    12     0     4     6     0    12     6     4
 Leave Link  302 at Thu Aug 21 17:09:26 2014, MaxMem=    6291456 cpu:       0.1
 (Enter /home/software/gaussian/g03/l303.exe)
 DipDrv:  MaxL=1.
 Leave Link  303 at Thu Aug 21 17:09:26 2014, MaxMem=    6291456 cpu:       0.0
 (Enter /home/software/gaussian/g03/l401.exe)
 Harris functional with IExCor=  205 diagonalized for initial guess.
 ExpMin= 1.83D-01 ExpMax= 1.72D+02 ExpMxC= 1.72D+02 IAcc=1 IRadAn=         1 AccDes= 1.00D-06
 HarFok:  IExCor= 205 AccDes= 1.00D-06 IRadAn=         1 IDoV=1
 ScaDFX=  1.000000  1.000000  1.000000  1.000000
 Harris En= -153.094628277049    
 Initial guess orbital symmetries:
       Occupied  (B1U) (AG) (B1U) (AG) (AG) (B1U) (AG) (B1U) (AG)
                 (B2U) (B3G) (B3U) (B2U) (B2G)
       Virtual   (B3U) (B3G) (B2G) (B1U) (AG) (B2U) (B1U) (B3G)
                 (AG) (B1U) (AG) (B3U) (B2U) (B2G) (B3G) (B3U)
                 (B1U) (AG) (B2G) (B2U) (B3G) (B1U) (B2U) (AG)
                 (AG) (B1U) (B3G) (B1U) (AG) (B1U)
 The electronic state of the initial guess is 1-AG.
 Leave Link  401 at Thu Aug 21 17:09:26 2014, MaxMem=    6291456 cpu:       0.1
 (Enter /home/software/gaussian/g03/l405.exe)
          Truncation Level=               99999
          a=  3          b=  0          c=  3
          a=N/2 - s   b=2s   c=n- (a+b)
          no. active orbitals (n)  6
          no. active ELECTRONS (N)=  6
                                                  IRREPS TO BE RETAINED = 1 2 3 4 5 6 7 8
                                                  GROUP IRREP. MULT. TABLE
                                                      1    2    3    4    5    6    7    8
                                                      2    1    4    3    6    5    8    7
                                                      3    4    1    2    7    8    5    6
                                                      4    3    2    1    8    7    6    5
                                                      5    6    7    8    1    2    3    4
                                                      6    5    8    7    2    1    4    3
                                                      7    8    5    6    3    4    1    2
                                                      8    7    6    5    4    3    2    1
                                                  IRREP. LABELS FOR ORBITALS
                                                   8 7 3 8 4 3
          BOTTOM WEIGHT= 12     TOP WEIGHT= 30
          PRIMARY BASIS FUNCTION=  1  2  3  1  2  3
                   2                    SYMMETRY TYPE  = 6
                        1    2    3
                        1    2    4
                   3                    SYMMETRY TYPE  = 1
                        1    2    4
                        1    2    4
                   4                    SYMMETRY TYPE  = 2
                        1    2    3
                        1    3    4
                   5                    SYMMETRY TYPE  = 2
                        1    2    3
                        1    2    5
                   6                    SYMMETRY TYPE  = 5
                        1    2    4
                        1    3    4
                   7                    SYMMETRY TYPE  = 5
                        1    2    4
                        1    2    5
                   8                    SYMMETRY TYPE  = 1
                        1    2    3
                        2    3    4
                   9                    SYMMETRY TYPE  = 6
                        1    2    3
                        1    3    5
                  10                    SYMMETRY TYPE  = 1
                        1    2    3
                        1    2    6
                  11                    SYMMETRY TYPE  = 1
                        1    3    4
                        1    3    4
                  12                    SYMMETRY TYPE  = 6
                        1    2    4
                        2    3    4
                  13                    SYMMETRY TYPE  = 1
                        1    2    4
                        1    3    5
                  14                    SYMMETRY TYPE  = 1
                        1    2    5
                        1    2    5
                  15                    SYMMETRY TYPE  = 6
                        1    2    4
                        1    2    6
                  16                    SYMMETRY TYPE  = 5
                        1    2    3
                        2    3    5
                  17                    SYMMETRY TYPE  = 1
                        1    2    3
                        1    4    5
                  18                    SYMMETRY TYPE  = 5
                        1    2    3
                        1    3    6
                  19                    SYMMETRY TYPE  = 2
                        1    3    4
                        2    3    4
                  20                    SYMMETRY TYPE  = 5
                        1    3    4
                        1    3    5
                  21                    SYMMETRY TYPE  = 2
                        1    2    4
                        2    3    5
                  22                    SYMMETRY TYPE  = 5
                        1    2    5
                        1    3    5
                  23                    SYMMETRY TYPE  = 6
                        1    2    4
                        1    4    5
                  24                    SYMMETRY TYPE  = 2
                        1    2    4
                        1    3    6
                  25                    SYMMETRY TYPE  = 2
                        1    2    5
                        1    2    6
                  26                    SYMMETRY TYPE  = 2
                        1    2    3
                        2    4    5
                  27                    SYMMETRY TYPE  = 6
                        1    2    3
                        2    3    6
                  28                    SYMMETRY TYPE  = 2
                        1    2    3
                        1    4    6
                  29                    SYMMETRY TYPE  = 1
                        2    3    4
                        2    3    4
                  30                    SYMMETRY TYPE  = 6
                        1    3    4
                        2    3    5
                  31                    SYMMETRY TYPE  = 1
                        1    3    5
                        1    3    5
                  32                    SYMMETRY TYPE  = 2
                        1    3    4
                        1    4    5
                  33                    SYMMETRY TYPE  = 6
                        1    3    4
                        1    3    6
                  34                    SYMMETRY TYPE  = 6
                        1    2    5
                        2    3    5
                  35                    SYMMETRY TYPE  = 5
                        1    2    4
                        2    4    5
                  36                    SYMMETRY TYPE  = 1
                        1    2    4
                        2    3    6
                  37                    SYMMETRY TYPE  = 2
                        1    2    5
                        1    4    5
                  38                    SYMMETRY TYPE  = 6
                        1    2    5
                        1    3    6
                  39                    SYMMETRY TYPE  = 5
                        1    2    4
                        1    4    6
                  40                    SYMMETRY TYPE  = 1
                        1    2    6
                        1    2    6
                  41                    SYMMETRY TYPE  = 6
                        1    2    3
                        3    4    5
                  42                    SYMMETRY TYPE  = 1
                        1    2    3
                        2    4    6
                  43                    SYMMETRY TYPE  = 6
                        1    2    3
                        1    5    6
                  44                    SYMMETRY TYPE  = 5
                        2    3    4
                        2    3    5
                  45                    SYMMETRY TYPE  = 2
                        1    3    5
                        2    3    5
                  46                    SYMMETRY TYPE  = 1
                        1    3    4
                        2    4    5
                  47                    SYMMETRY TYPE  = 5
                        1    3    4
                        2    3    6
                  48                    SYMMETRY TYPE  = 6
                        1    3    5
                        1    4    5
                  49                    SYMMETRY TYPE  = 2
                        1    3    5
                        1    3    6
                  50                    SYMMETRY TYPE  = 1
                        1    3    4
                        1    4    6
                  51                    SYMMETRY TYPE  = 1
                        1    2    5
                        2    4    5
                  52                    SYMMETRY TYPE  = 5
                        1    2    5
                        2    3    6
                  53                    SYMMETRY TYPE  = 1
                        1    2    4
                        3    4    5
                  54                    SYMMETRY TYPE  = 6
                        1    2    4
                        2    4    6
                  55                    SYMMETRY TYPE  = 1
                        1    2    5
                        1    4    6
                  56                    SYMMETRY TYPE  = 5
                        1    2    6
                        1    3    6
                  57                    SYMMETRY TYPE  = 1
                        1    2    4
                        1    5    6
                  58                    SYMMETRY TYPE  = 5
                        1    2    3
                        3    4    6
                  59                    SYMMETRY TYPE  = 5
                        1    2    3
                        2    5    6
                  60                    SYMMETRY TYPE  = 1
                        2    3    5
                        2    3    5
                  61                    SYMMETRY TYPE  = 2
                        2    3    4
                        2    4    5
                  62                    SYMMETRY TYPE  = 6
                        2    3    4
                        2    3    6
                  63                    SYMMETRY TYPE  = 5
                        1    3    5
                        2    4    5
                  64                    SYMMETRY TYPE  = 1
                        1    3    5
                        2    3    6
                  65                    SYMMETRY TYPE  = 5
                        1    3    4
                        3    4    5
                  66                    SYMMETRY TYPE  = 2
                        1    3    4
                        2    4    6
                  67                    SYMMETRY TYPE  = 1
                        1    4    5
                        1    4    5
                  68                    SYMMETRY TYPE  = 5
                        1    3    5
                        1    4    6
                  69                    SYMMETRY TYPE  = 1
                        1    3    6
                        1    3    6
                  70                    SYMMETRY TYPE  = 5
                        1    3    4
                        1    5    6
                  71                    SYMMETRY TYPE  = 5
                        1    2    5
                        3    4    5
                  72                    SYMMETRY TYPE  = 2
                        1    2    5
                        2    4    6
                  73                    SYMMETRY TYPE  = 6
                        1    2    6
                        2    3    6
                  74                    SYMMETRY TYPE  = 2
                        1    2    4
                        3    4    6
                  75                    SYMMETRY TYPE  = 2
                        1    2    4
                        2    5    6
                  76                    SYMMETRY TYPE  = 2
                        1    2    6
                        1    4    6
                  77                    SYMMETRY TYPE  = 5
                        1    2    5
                        1    5    6
                  78                    SYMMETRY TYPE  = 1
                        1    2    3
                        3    5    6
                  79                    SYMMETRY TYPE  = 6
                        2    3    5
                        2    4    5
                  80                    SYMMETRY TYPE  = 2
                        2    3    5
                        2    3    6
                  81                    SYMMETRY TYPE  = 6
                        2    3    4
                        3    4    5
                  82                    SYMMETRY TYPE  = 1
                        2    3    4
                        2    4    6
                  83                    SYMMETRY TYPE  = 2
                        1    4    5
                        2    4    5
                  84                    SYMMETRY TYPE  = 1
                        1    3    5
                        3    4    5
                  85                    SYMMETRY TYPE  = 6
                        1    3    5
                        2    4    6
                  86                    SYMMETRY TYPE  = 2
                        1    3    6
                        2    3    6
                  87                    SYMMETRY TYPE  = 6
                        1    3    4
                        3    4    6
                  88                    SYMMETRY TYPE  = 6
                        1    3    4
                        2    5    6
                  89                    SYMMETRY TYPE  = 2
                        1    4    5
                        1    4    6
                  90                    SYMMETRY TYPE  = 6
                        1    3    6
                        1    4    6
                  91                    SYMMETRY TYPE  = 1
                        1    3    5
                        1    5    6
                  92                    SYMMETRY TYPE  = 6
                        1    2    5
                        3    4    6
                  93                    SYMMETRY TYPE  = 1
                        1    2    6
                        2    4    6
                  94                    SYMMETRY TYPE  = 6
                        1    2    5
                        2    5    6
                  95                    SYMMETRY TYPE  = 6
                        1    2    4
                        3    5    6
                  96                    SYMMETRY TYPE  = 6
                        1    2    6
                        1    5    6
                  97                    SYMMETRY TYPE  = 6
                        1    2    3
                        4    5    6
                  98                    SYMMETRY TYPE  = 1
                        2    4    5
                        2    4    5
                  99                    SYMMETRY TYPE  = 2
                        2    3    5
                        3    4    5
                 100                    SYMMETRY TYPE  = 5
                        2    3    5
                        2    4    6
                 101                    SYMMETRY TYPE  = 1
                        2    3    6
                        2    3    6
                 102                    SYMMETRY TYPE  = 5
                        2    3    4
                        3    4    6
                 103                    SYMMETRY TYPE  = 5
                        2    3    4
                        2    5    6
                 104                    SYMMETRY TYPE  = 6
                        1    4    5
                        3    4    5
                 105                    SYMMETRY TYPE  = 1
                        1    4    5
                        2    4    6
                 106                    SYMMETRY TYPE  = 2
                        1    3    5
                        3    4    6
                 107                    SYMMETRY TYPE  = 5
                        1    3    6
                        2    4    6
                 108                    SYMMETRY TYPE  = 2
                        1    3    5
                        2    5    6
                 109                    SYMMETRY TYPE  = 2
                        1    3    4
                        3    5    6
                 110                    SYMMETRY TYPE  = 1
                        1    4    6
                        1    4    6
                 111                    SYMMETRY TYPE  = 6
                        1    4    5
                        1    5    6
                 112                    SYMMETRY TYPE  = 2
                        1    3    6
                        1    5    6
                 113                    SYMMETRY TYPE  = 5
                        1    2    6
                        3    4    6
                 114                    SYMMETRY TYPE  = 2
                        1    2    5
                        3    5    6
                 115                    SYMMETRY TYPE  = 5
                        1    2    6
                        2    5    6
                 116                    SYMMETRY TYPE  = 1
                        1    2    4
                        4    5    6
                 117                    SYMMETRY TYPE  = 5
                        2    4    5
                        3    4    5
                 118                    SYMMETRY TYPE  = 2
                        2    4    5
                        2    4    6
                 119                    SYMMETRY TYPE  = 1
                        2    3    5
                        3    4    6
                 120                    SYMMETRY TYPE  = 6
                        2    3    6
                        2    4    6
                 121                    SYMMETRY TYPE  = 1
                        2    3    5
                        2    5    6
                 122                    SYMMETRY TYPE  = 1
                        2    3    4
                        3    5    6
                 123                    SYMMETRY TYPE  = 5
                        1    4    5
                        3    4    6
                 124                    SYMMETRY TYPE  = 2
                        1    4    6
                        2    4    6
                 125                    SYMMETRY TYPE  = 5
                        1    4    5
                        2    5    6
                 126                    SYMMETRY TYPE  = 1
                        1    3    6
                        3    4    6
                 127                    SYMMETRY TYPE  = 6
                        1    3    5
                        3    5    6
                 128                    SYMMETRY TYPE  = 1
                        1    3    6
                        2    5    6
                 129                    SYMMETRY TYPE  = 5
                        1    3    4
                        4    5    6
                 130                    SYMMETRY TYPE  = 5
                        1    4    6
                        1    5    6
                 131                    SYMMETRY TYPE  = 1
                        1    2    6
                        3    5    6
                 132                    SYMMETRY TYPE  = 5
                        1    2    5
                        4    5    6
                 133                    SYMMETRY TYPE  = 1
                        3    4    5
                        3    4    5
                 134                    SYMMETRY TYPE  = 6
                        2    4    5
                        3    4    6
                 135                    SYMMETRY TYPE  = 1
                        2    4    6
                        2    4    6
                 136                    SYMMETRY TYPE  = 6
                        2    4    5
                        2    5    6
                 137                    SYMMETRY TYPE  = 2
                        2    3    6
                        3    4    6
                 138                    SYMMETRY TYPE  = 5
                        2    3    5
                        3    5    6
                 139                    SYMMETRY TYPE  = 2
                        2    3    6
                        2    5    6
                 140                    SYMMETRY TYPE  = 6
                        2    3    4
                        4    5    6
                 141                    SYMMETRY TYPE  = 6
                        1    4    6
                        3    4    6
                 142                    SYMMETRY TYPE  = 1
                        1    4    5
                        3    5    6
                 143                    SYMMETRY TYPE  = 6
                        1    4    6
                        2    5    6
                 144                    SYMMETRY TYPE  = 5
                        1    3    6
                        3    5    6
                 145                    SYMMETRY TYPE  = 1
                        1    3    5
                        4    5    6
                 146                    SYMMETRY TYPE  = 1
                        1    5    6
                        1    5    6
                 147                    SYMMETRY TYPE  = 6
                        1    2    6
                        4    5    6
                 148                    SYMMETRY TYPE  = 2
                        3    4    5
                        3    4    6
                 149                    SYMMETRY TYPE  = 5
                        2    4    6
                        3    4    6
                 150                    SYMMETRY TYPE  = 2
                        2    4    5
                        3    5    6
                 151                    SYMMETRY TYPE  = 5
                        2    4    6
                        2    5    6
                 152                    SYMMETRY TYPE  = 6
                        2    3    6
                        3    5    6
                 153                    SYMMETRY TYPE  = 2
                        2    3    5
                        4    5    6
                 154                    SYMMETRY TYPE  = 2
                        1    4    6
                        3    5    6
                 155                    SYMMETRY TYPE  = 6
                        1    4    5
                        4    5    6
                 156                    SYMMETRY TYPE  = 2
                        1    5    6
                        2    5    6
                 157                    SYMMETRY TYPE  = 2
                        1    3    6
                        4    5    6
                 158                    SYMMETRY TYPE  = 1
                        3    4    6
                        3    4    6
                 159                    SYMMETRY TYPE  = 6
                        3    4    5
                        3    5    6
                 160                    SYMMETRY TYPE  = 1
                        2    4    6
                        3    5    6
                 161                    SYMMETRY TYPE  = 5
                        2    4    5
                        4    5    6
                 162                    SYMMETRY TYPE  = 1
                        2    5    6
                        2    5    6
                 163                    SYMMETRY TYPE  = 1
                        2    3    6
                        4    5    6
                 164                    SYMMETRY TYPE  = 6
                        1    5    6
                        3    5    6
                 165                    SYMMETRY TYPE  = 5
                        1    4    6
                        4    5    6
                 166                    SYMMETRY TYPE  = 5
                        3    4    6
                        3    5    6
                 167                    SYMMETRY TYPE  = 1
                        3    4    5
                        4    5    6
                 168                    SYMMETRY TYPE  = 5
                        2    5    6
                        3    5    6
                 169                    SYMMETRY TYPE  = 6
                        2    4    6
                        4    5    6
                 170                    SYMMETRY TYPE  = 1
                        1    5    6
                        4    5    6
                 171                    SYMMETRY TYPE  = 1
                        3    5    6
                        3    5    6
                 172                    SYMMETRY TYPE  = 2
                        3    4    6
                        4    5    6
                 173                    SYMMETRY TYPE  = 2
                        2    5    6
                        4    5    6
                 174                    SYMMETRY TYPE  = 6
                        3    5    6
                        4    5    6
                 175                    SYMMETRY TYPE  = 1
                        4    5    6
                        4    5    6
          NO OF BASIS FUNCTIONS =       175 NO TO BE DELETED =    0
 CI Matrix Elements calculated here
          NO. OF CONFIGURATIONS IN REFERENCE SPACE =    1
                                   SECONDARY SPACE =  175
                                   TERTIARY SPACE =  175
          NO. OF ORBITALS =    6
          NO. OF ELECTRONS =    6
          NO. OF WEIGHTS =   19
          REFERENCE STATE CONFIGURATIONS ARE:     0
          NO. OF CORE ORBITALS =    0
          OPTION:  NON-DIAGONAL HOLE LINE INTERACTIONS INCLUDED
 Len28=       94017 LenMCI=       51962.
 Leave Link  405 at Thu Aug 21 17:09:26 2014, MaxMem=    6291456 cpu:       0.1
 (Enter /home/software/gaussian/g03/l510.exe)
 Enter MCSCF program.
 NO. OF ORBITALS = 44     NO. OF CORE-ORBITALS = 11
 NO. OF VALENCE-ORBITALS =  6      NO. OF VIRTUAL-ORBITALS = 27
 USED ACCURACY IN CHECKING CONVEGERGENCE =  1.00D-08
  Memory needed for Incore Integrals:                 1810589
  Memory needed for direct integral evaluation:                 1175808
  Integrals KEPT IN MEMORY
 IBUJAK length=                  600138
 Integral file not found: evaluate integrals 
 Symmetry not used in FoFDir.
 MinBra= 0 MaxBra= 1 Meth= 1.
 IRaf=       0 NMat=   1 IRICut=       1 DoRegI=T DoRafI=F ISym2E= 0 JSym2E=0.
 First order MCSCF but last itn is Quadratic
 Defining IBUGAM
 2ND ORD PT ENERGY     CV   -0.014735   CU   -0.114809   UV   -0.069212
 TOTAL                    -152.964836
 ITN=  1 MaxIt= 64 E=   -152.7660805972 DE=-1.53D+02 Acc= 1.00D-08 Lan=  0
 ITN=  2 MaxIt= 64 E=   -152.9169781080 DE=-1.51D-01 Acc= 1.00D-08 Lan=  0
 ITN=  3 MaxIt= 64 E=   -152.9308750377 DE=-1.39D-02 Acc= 1.00D-08 Lan=  0
 ITN=  4 MaxIt= 64 E=   -152.9324843288 DE=-1.61D-03 Acc= 1.00D-08 Lan=  0
 ITN=  5 MaxIt= 64 E=   -152.9326292856 DE=-1.45D-04 Acc= 1.00D-08 Lan=  0
 ITN=  6 MaxIt= 64 E=   -152.9326442256 DE=-1.49D-05 Acc= 1.00D-08 Lan=  0
 ITN=  7 MaxIt= 64 E=   -152.9326461415 DE=-1.92D-06 Acc= 1.00D-08 Lan=  0
 ITN=  8 MaxIt= 64 E=   -152.9326464203 DE=-2.79D-07 Acc= 1.00D-08 Lan=  0
 ITN=  9 MaxIt= 64 E=   -152.9326464637 DE=-4.34D-08 Acc= 1.00D-08 Lan=  0
 ITN= 10 MaxIt= 64 E=   -152.9326464707 DE=-7.01D-09 Acc= 1.00D-08 Lan=  0
 ... Do an extra-iteration for final printing.


                    EIGENVALUES AND  EIGENVECTORS OF CI MATRIX



   ( 1)     EIGENVALUE    -152.9326464719
 (    1) 0.9252469 (    3)-0.2529716 (   36) 0.1583719 (   31)-0.1562864 (   29)-0.0672817 (   64) 0.0670495 (   42)-0.0642375
 (  101)-0.0633767 (   78) 0.0517254 (   17) 0.0483467 (   40)-0.0409312 (   67) 0.0384320 (  135) 0.0328199 (  142)-0.0303841
 (  105)-0.0192584 (   53)-0.0187786 (  171) 0.0181756 (  145) 0.0153682 (   13)-0.0153390 (   57)-0.0145134 (   46) 0.0142803
 (   55) 0.0116913 (  116)-0.0115151 (   84) 0.0109997 (  133) 0.0100411 (   60)-0.0099755 (   91) 0.0097422 (   69)-0.0092222
 (   82) 0.0084006 (   93) 0.0081458 (  175)-0.0073735 (  146) 0.0062073 (  131)-0.0050581 (  160) 0.0045478 (  128) 0.0036381
 (  163)-0.0036037 (   98) 0.0034098 (  122)-0.0032979 (  110) 0.0031338 (   51)-0.0026818 (   50)-0.0025601 (   11)-0.0023536
 (  119) 0.0021964 (  126)-0.0020067 (  121)-0.0019882 (    8)-0.0015731 (   10)-0.0014266 (  167)-0.0013454 (   14)-0.0009641
 (  170)-0.0007493 (
 Final one electron symbolic density matrix:
                1             2             3             4             5
      1  0.194047D+01
      2  0.555482D-16  0.193293D+01
      3  0.312062D-14 -0.158326D-15  0.182772D+01
      4 -0.736544D-05  0.613999D-16 -0.531255D-14  0.178333D+00
      5 -0.532572D-15 -0.418477D-13  0.529802D-16  0.424169D-15  0.670943D-01
      6  0.328336D-13 -0.326614D-15  0.405517D-05  0.441014D-15  0.618589D-16
                6
      6  0.534469D-01
 MCSCF converged.
 Leave Link  510 at Thu Aug 21 17:09:31 2014, MaxMem=    6291456 cpu:       4.8
 (Enter /home/software/gaussian/g03/l801.exe)
 Range of M.O.s used for correlation:     1    44
 NBasis=    44 NAE=    14 NBE=    14 NFC=     0 NFV=     0
 NROrb=     44 NOA=    14 NOB=    14 NVA=    30 NVB=    30

 **** Warning!!: The largest alpha MO coefficient is  0.13263131D+02

 Leave Link  801 at Thu Aug 21 17:09:31 2014, MaxMem=    6291456 cpu:       0.0
 (Enter /home/software/gaussian/g03/l1101.exe)
 Not using compressed storage, NAtomX=     8.
 Will process   8 centers per pass.
 Leave Link 1101 at Thu Aug 21 17:09:31 2014, MaxMem=    6291456 cpu:       0.1
 (Enter /home/software/gaussian/g03/l1003.exe)
 NO. OF ORBITALS         = 44      NO. OF CORE-ORBITALS    = 11
 NO. OF VALENCE-ORBITALS =  6      NO. OF VIRTUAL-ORBITALS = 27
 One call to fofdir will do it.
 Symmetry not used in FoFDir.
 MinBra= 0 MaxBra= 1 Meth= 1.
 IRaf=       1 NMat=   2 IRICut=       1 DoRegI=T DoRafI=F ISym2E= 0 JSym2E=0.
 JobTyp= 0 Pass  1:  I=   1 to   6  IAt=   2 to   8.
 Leave Link 1003 at Thu Aug 21 17:09:32 2014, MaxMem=    6291456 cpu:       1.2
 (Enter /home/software/gaussian/g03/l601.exe)
 Copying SCF densities to generalized density rwf, ISCF=0 IROHF=3.

 **********************************************************************

            Population analysis using the SCF density.

 **********************************************************************

 Orbital symmetries:
       Occupied  (B1U) (AG) (B1U) (AG) (AG) (B1U) (AG) (B1U) (AG)
                 (B2U) (B3G) (B3U) (B2U) (B2G)
       Virtual   (B3U) (B3G) (B2G) (B1U) (AG) (B2U) (B1U) (B3G)
                 (AG) (B1U) (AG) (B3U) (B2U) (B2G) (B3G) (B3U)
                 (B1U) (AG) (B2G) (B2U) (B3G) (B1U) (B2U) (AG)
                 (AG) (B1U) (B3G) (B1U) (AG) (B1U)
 The electronic state is 1-AG.
 Alpha  occ. eigenvalues --    0.00000   0.00000   0.00000   0.00000   0.00000
 Alpha  occ. eigenvalues --    0.00000   0.00000   0.00000   0.00000   0.00000
 Alpha  occ. eigenvalues --    0.00000   0.00000   0.00000   0.00000
 Alpha virt. eigenvalues --    0.00000   0.00000   0.00000   0.00000   0.00000
 Alpha virt. eigenvalues --    0.00000   0.00000   0.00000   0.00000   0.00000
 Alpha virt. eigenvalues --    0.00000   0.00000   0.00000   0.00000   0.00000
 Alpha virt. eigenvalues --    0.00000   0.00000   0.00000   0.00000   0.00000
 Alpha virt. eigenvalues --    0.00000   0.00000   0.00000   0.00000   0.00000
 Alpha virt. eigenvalues --    0.00000   0.00000   0.00000   0.00000   0.00000
     Molecular Orbital Coefficients
                           1         2         3         4         5
                       (B1U)--O   (AG)--O  (B1U)--O   (AG)--O   (AG)--O
     EIGENVALUES --     0.00000   0.00000   0.00000   0.00000   0.00000
   1 1   C  1S          0.00302   0.01809   0.69774   0.69760  -0.09436
   2        2S         -0.00251  -0.00084   0.06839   0.06864   0.10421
   3        2PX         0.00000   0.00000   0.00000   0.00000   0.00000
   4        2PY         0.00000   0.00000   0.00000   0.00000   0.00000
   5        2PZ         0.00289   0.00252  -0.00075  -0.00005  -0.07323
   6        3S         -0.01334   0.01432  -0.04490  -0.05763   0.21751
   7        3PX         0.00000   0.00000   0.00000   0.00000   0.00000
   8        3PY         0.00000   0.00000   0.00000   0.00000   0.00000
   9        3PZ         0.00132  -0.00998   0.00410   0.00983  -0.01330
  10 2   C  1S          0.69793   0.69692  -0.00348  -0.01821  -0.15222
  11        2S          0.07149   0.06249  -0.00360  -0.00428   0.18265
  12        2PX         0.00000   0.00000   0.00000   0.00000   0.00000
  13        2PY         0.00000   0.00000   0.00000   0.00000   0.00000
  14        2PZ        -0.00454   0.00268  -0.00224  -0.00244  -0.03918
  15        3S         -0.10114  -0.03221   0.02568   0.02765   0.26427
  16        3PX         0.00000   0.00000   0.00000   0.00000   0.00000
  17        3PY         0.00000   0.00000   0.00000   0.00000   0.00000
  18        3PZ         0.06160  -0.01102  -0.00005   0.01803  -0.01274
  19 3   C  1S         -0.69793   0.69692   0.00348  -0.01821  -0.15222
  20        2S         -0.07149   0.06249   0.00360  -0.00428   0.18265
  21        2PX         0.00000   0.00000   0.00000   0.00000   0.00000
  22        2PY         0.00000   0.00000   0.00000   0.00000   0.00000
  23        2PZ        -0.00454  -0.00268  -0.00224   0.00244   0.03918
  24        3S          0.10114  -0.03221  -0.02568   0.02765   0.26427
  25        3PX         0.00000   0.00000   0.00000   0.00000   0.00000
  26        3PY         0.00000   0.00000   0.00000   0.00000   0.00000
  27        3PZ         0.06160   0.01102  -0.00005  -0.01803   0.01274
  28 4   C  1S         -0.00302   0.01809  -0.69774   0.69760  -0.09436
  29        2S          0.00251  -0.00084  -0.06839   0.06864   0.10421
  30        2PX         0.00000   0.00000   0.00000   0.00000   0.00000
  31        2PY         0.00000   0.00000   0.00000   0.00000   0.00000
  32        2PZ         0.00289  -0.00252  -0.00075   0.00005   0.07323
  33        3S          0.01334   0.01432   0.04490  -0.05763   0.21751
  34        3PX         0.00000   0.00000   0.00000   0.00000   0.00000
  35        3PY         0.00000   0.00000   0.00000   0.00000   0.00000
  36        3PZ         0.00132   0.00998   0.00410  -0.00983   0.01330
  37 5   H  1S          0.00043  -0.00082   0.00112  -0.00083   0.04215
  38        2S         -0.00143   0.00212  -0.00892   0.00871  -0.00289
  39 6   H  1S          0.00043  -0.00082   0.00112  -0.00083   0.04215
  40        2S         -0.00143   0.00212  -0.00892   0.00871  -0.00289
  41 7   H  1S         -0.00043  -0.00082  -0.00112  -0.00083   0.04215
  42        2S          0.00143   0.00212   0.00892   0.00871  -0.00289
  43 8   H  1S         -0.00043  -0.00082  -0.00112  -0.00083   0.04215
  44        2S          0.00143   0.00212   0.00892   0.00871  -0.00289
                           6         7         8         9        10
                       (B1U)--O   (AG)--O  (B1U)--O   (AG)--O  (B2U)--O
     EIGENVALUES --     0.00000   0.00000   0.00000   0.00000   0.00000
   1 1   C  1S         -0.13896  -0.11246  -0.04355  -0.01781   0.00000
   2        2S          0.15366   0.11993   0.03496   0.00789   0.00000
   3        2PX         0.00000   0.00000   0.00000   0.00000   0.00000
   4        2PY         0.00000   0.00000   0.00000   0.00000   0.27277
   5        2PZ        -0.06595   0.01702   0.25967   0.27116   0.00000
   6        3S          0.26231   0.30429   0.27696   0.14877   0.00000
   7        3PX         0.00000   0.00000   0.00000   0.00000   0.00000
   8        3PY         0.00000   0.00000   0.00000   0.00000   0.22509
   9        3PZ         0.02210   0.01147   0.09802   0.13448   0.00000
  10 2   C  1S         -0.08248   0.08019   0.08291   0.02074   0.00000
  11        2S          0.09861  -0.09391  -0.09738  -0.02414   0.00000
  12        2PX         0.00000   0.00000   0.00000   0.00000   0.00000
  13        2PY         0.00000   0.00000   0.00000   0.00000   0.02466
  14        2PZ         0.13874   0.25784  -0.13234  -0.26880   0.00000
  15        3S          0.05493  -0.17858  -0.12603  -0.12353   0.00000
  16        3PX         0.00000   0.00000   0.00000   0.00000   0.00000
  17        3PY         0.00000   0.00000   0.00000   0.00000  -0.02903
  18        3PZ         0.18086   0.08465  -0.24337  -0.17693   0.00000
  19 3   C  1S          0.08248   0.08019  -0.08291   0.02074   0.00000
  20        2S         -0.09861  -0.09391   0.09738  -0.02414   0.00000
  21        2PX         0.00000   0.00000   0.00000   0.00000   0.00000
  22        2PY         0.00000   0.00000   0.00000   0.00000   0.02466
  23        2PZ         0.13874  -0.25784  -0.13234   0.26880   0.00000
  24        3S         -0.05493  -0.17858   0.12603  -0.12353   0.00000
  25        3PX         0.00000   0.00000   0.00000   0.00000   0.00000
  26        3PY         0.00000   0.00000   0.00000   0.00000  -0.02903
  27        3PZ         0.18086  -0.08465  -0.24337   0.17693   0.00000
  28 4   C  1S          0.13896  -0.11246   0.04355  -0.01781   0.00000
  29        2S         -0.15366   0.11993  -0.03496   0.00789   0.00000
  30        2PX         0.00000   0.00000   0.00000   0.00000   0.00000
  31        2PY         0.00000   0.00000   0.00000   0.00000   0.27277
  32        2PZ        -0.06595  -0.01702   0.25967  -0.27116   0.00000
  33        3S         -0.26231   0.30429  -0.27696   0.14877   0.00000
  34        3PX         0.00000   0.00000   0.00000   0.00000   0.00000
  35        3PY         0.00000   0.00000   0.00000   0.00000   0.22509
  36        3PZ         0.02210  -0.01147   0.09802  -0.13448   0.00000
  37 5   H  1S         -0.07470   0.08250  -0.11780   0.10484   0.16290
  38        2S         -0.00596   0.02697  -0.08657   0.08431   0.13163
  39 6   H  1S         -0.07470   0.08250  -0.11780   0.10484  -0.16290
  40        2S         -0.00596   0.02697  -0.08657   0.08431  -0.13163
  41 7   H  1S          0.07470   0.08250   0.11780   0.10484   0.16290
  42        2S          0.00596   0.02697   0.08657   0.08431   0.13163
  43 8   H  1S          0.07470   0.08250   0.11780   0.10484  -0.16290
  44        2S          0.00596   0.02697   0.08657   0.08431  -0.13163
                          11        12        13        14        15
                       (B3G)--O  (B3U)--O  (B2U)--O  (B2G)--O  (B3U)--V
     EIGENVALUES --     0.00000   0.00000   0.00000   0.00000   0.00000
   1 1   C  1S          0.00000   0.00000   0.00000   0.00000   0.00000
   2        2S          0.00000   0.00000   0.00000   0.00000   0.00000
   3        2PX         0.00000   0.17787   0.00000   0.29362   0.37305
   4        2PY         0.27174   0.00000  -0.00801   0.00000   0.00000
   5        2PZ         0.00000   0.00000   0.00000   0.00000   0.00000
   6        3S          0.00000   0.00000   0.00000   0.00000   0.00000
   7        3PX         0.00000   0.16918   0.00000   0.34082   0.41062
   8        3PY         0.23860   0.00000  -0.04839   0.00000   0.00000
   9        3PZ         0.00000   0.00000   0.00000   0.00000   0.00000
  10 2   C  1S          0.00000   0.00000   0.00000   0.00000   0.00000
  11        2S          0.00000   0.00000   0.00000   0.00000   0.00000
  12        2PX         0.00000   0.29428   0.00000   0.18133  -0.23966
  13        2PY         0.05245   0.00000   0.35609   0.00000   0.00000
  14        2PZ         0.00000   0.00000   0.00000   0.00000   0.00000
  15        3S          0.00000   0.00000   0.00000   0.00000   0.00000
  16        3PX         0.00000   0.25366   0.00000   0.21501  -0.25343
  17        3PY        -0.00072   0.00000   0.35625   0.00000   0.00000
  18        3PZ         0.00000   0.00000   0.00000   0.00000   0.00000
  19 3   C  1S          0.00000   0.00000   0.00000   0.00000   0.00000
  20        2S          0.00000   0.00000   0.00000   0.00000   0.00000
  21        2PX         0.00000   0.29428   0.00000  -0.18133  -0.23966
  22        2PY        -0.05245   0.00000   0.35609   0.00000   0.00000
  23        2PZ         0.00000   0.00000   0.00000   0.00000   0.00000
  24        3S          0.00000   0.00000   0.00000   0.00000   0.00000
  25        3PX         0.00000   0.25366   0.00000  -0.21501  -0.25343
  26        3PY         0.00072   0.00000   0.35625   0.00000   0.00000
  27        3PZ         0.00000   0.00000   0.00000   0.00000   0.00000
  28 4   C  1S          0.00000   0.00000   0.00000   0.00000   0.00000
  29        2S          0.00000   0.00000   0.00000   0.00000   0.00000
  30        2PX         0.00000   0.17787   0.00000  -0.29362   0.37305
  31        2PY        -0.27174   0.00000  -0.00801   0.00000   0.00000
  32        2PZ         0.00000   0.00000   0.00000   0.00000   0.00000
  33        3S          0.00000   0.00000   0.00000   0.00000   0.00000
  34        3PX         0.00000   0.16918   0.00000  -0.34082   0.41062
  35        3PY        -0.23860   0.00000  -0.04839   0.00000   0.00000
  36        3PZ         0.00000   0.00000   0.00000   0.00000   0.00000
  37 5   H  1S         -0.15621   0.00000  -0.04366   0.00000   0.00000
  38        2S         -0.11280   0.00000  -0.06825   0.00000   0.00000
  39 6   H  1S          0.15621   0.00000   0.04366   0.00000   0.00000
  40        2S          0.11280   0.00000   0.06825   0.00000   0.00000
  41 7   H  1S          0.15621   0.00000  -0.04366   0.00000   0.00000
  42        2S          0.11280   0.00000  -0.06825   0.00000   0.00000
  43 8   H  1S         -0.15621   0.00000   0.04366   0.00000   0.00000
  44        2S         -0.11280   0.00000   0.06825   0.00000   0.00000
                          16        17        18        19        20
                       (B3G)--V  (B2G)--V  (B1U)--V   (AG)--V  (B2U)--V
     EIGENVALUES --     0.00000   0.00000   0.00000   0.00000   0.00000
   1 1   C  1S          0.00000   0.00000  -0.10973  -0.10237   0.00000
   2        2S          0.00000   0.00000   0.05751   0.04455   0.00000
   3        2PX         0.00000  -0.27621   0.00000   0.00000   0.00000
   4        2PY        -0.03180   0.00000   0.00000   0.00000  -0.24342
   5        2PZ         0.00000   0.00000   0.07725   0.10843   0.00000
   6        3S          0.00000   0.00000   1.29743   1.33326   0.00000
   7        3PX         0.00000  -0.32514   0.00000   0.00000   0.00000
   8        3PY        -0.12016   0.00000   0.00000   0.00000  -1.15037
   9        3PZ         0.00000   0.00000   0.53929   0.58568   0.00000
  10 2   C  1S          0.00000   0.00000   0.03550   0.00404   0.00000
  11        2S          0.00000   0.00000  -0.01244   0.02567   0.00000
  12        2PX         0.00000   0.48915   0.00000   0.00000   0.00000
  13        2PY         0.53705   0.00000   0.00000   0.00000   0.02084
  14        2PZ         0.00000   0.00000   0.01166  -0.05621   0.00000
  15        3S          0.00000   0.00000  -0.38795   0.05033   0.00000
  16        3PX         0.00000   0.54732   0.00000   0.00000   0.00000
  17        3PY         0.51478   0.00000   0.00000   0.00000   0.24644
  18        3PZ         0.00000   0.00000   0.23863   0.01396   0.00000
  19 3   C  1S          0.00000   0.00000  -0.03550   0.00404   0.00000
  20        2S          0.00000   0.00000   0.01244   0.02567   0.00000
  21        2PX         0.00000  -0.48915   0.00000   0.00000   0.00000
  22        2PY        -0.53705   0.00000   0.00000   0.00000   0.02084
  23        2PZ         0.00000   0.00000   0.01166   0.05621   0.00000
  24        3S          0.00000   0.00000   0.38795   0.05033   0.00000
  25        3PX         0.00000  -0.54732   0.00000   0.00000   0.00000
  26        3PY        -0.51478   0.00000   0.00000   0.00000   0.24644
  27        3PZ         0.00000   0.00000   0.23863  -0.01396   0.00000
  28 4   C  1S          0.00000   0.00000   0.10973  -0.10237   0.00000
  29        2S          0.00000   0.00000  -0.05751   0.04455   0.00000
  30        2PX         0.00000   0.27621   0.00000   0.00000   0.00000
  31        2PY         0.03180   0.00000   0.00000   0.00000  -0.24342
  32        2PZ         0.00000   0.00000   0.07725  -0.10843   0.00000
  33        3S          0.00000   0.00000  -1.29743   1.33326   0.00000
  34        3PX         0.00000   0.32514   0.00000   0.00000   0.00000
  35        3PY         0.12016   0.00000   0.00000   0.00000  -1.15037
  36        3PZ         0.00000   0.00000   0.53929  -0.58568   0.00000
  37 5   H  1S          0.05765   0.00000   0.02189  -0.02216  -0.00005
  38        2S          0.06157   0.00000   0.97172  -0.99357   1.16473
  39 6   H  1S         -0.05765   0.00000   0.02189  -0.02216   0.00005
  40        2S         -0.06157   0.00000   0.97172  -0.99357  -1.16473
  41 7   H  1S         -0.05765   0.00000  -0.02189  -0.02216  -0.00005
  42        2S         -0.06157   0.00000  -0.97172  -0.99357   1.16473
  43 8   H  1S          0.05765   0.00000  -0.02189  -0.02216   0.00005
  44        2S          0.06157   0.00000  -0.97172  -0.99357  -1.16473
                          21        22        23        24        25
                       (B1U)--V  (B3G)--V   (AG)--V  (B1U)--V   (AG)--V
     EIGENVALUES --     0.00000   0.00000   0.00000   0.00000   0.00000
   1 1   C  1S          0.07548   0.00000   0.08394   0.01988  -0.02535
   2        2S         -0.01724   0.00000   0.02708   0.17832   0.11941
   3        2PX         0.00000   0.00000   0.00000   0.00000   0.00000
   4        2PY         0.00000   0.25023   0.00000   0.00000   0.00000
   5        2PZ         0.18026   0.00000   0.02044  -0.36080  -0.58686
   6        3S         -2.34389   0.00000  -2.19499  -3.84544  -0.47235
   7        3PX         0.00000   0.00000   0.00000   0.00000   0.00000
   8        3PY         0.00000   1.25516   0.00000   0.00000   0.00000
   9        3PZ         2.07571   0.00000   2.14476   2.47693   0.95699
  10 2   C  1S         -0.13515   0.00000  -0.06526   0.09740   0.02061
  11        2S          0.09966   0.00000  -0.05514   0.09815   0.45549
  12        2PX         0.00000   0.00000   0.00000   0.00000   0.00000
  13        2PY         0.00000  -0.06103   0.00000   0.00000   0.00000
  14        2PZ        -0.04640   0.00000   0.27048   0.23717  -0.35655
  15        3S          0.63808   0.00000   2.87619  -4.41000   0.38974
  16        3PX         0.00000   0.00000   0.00000   0.00000   0.00000
  17        3PY         0.00000  -0.52572   0.00000   0.00000   0.00000
  18        3PZ         3.04894   0.00000   1.75184   7.01094   0.72587
  19 3   C  1S          0.13515   0.00000  -0.06526  -0.09740   0.02061
  20        2S         -0.09966   0.00000  -0.05514  -0.09815   0.45549
  21        2PX         0.00000   0.00000   0.00000   0.00000   0.00000
  22        2PY         0.00000   0.06103   0.00000   0.00000   0.00000
  23        2PZ        -0.04640   0.00000  -0.27048   0.23717   0.35655
  24        3S         -0.63808   0.00000   2.87619   4.41000   0.38974
  25        3PX         0.00000   0.00000   0.00000   0.00000   0.00000
  26        3PY         0.00000   0.52572   0.00000   0.00000   0.00000
  27        3PZ         3.04894   0.00000  -1.75184   7.01094  -0.72587
  28 4   C  1S         -0.07548   0.00000   0.08394  -0.01988  -0.02535
  29        2S          0.01724   0.00000   0.02708  -0.17832   0.11941
  30        2PX         0.00000   0.00000   0.00000   0.00000   0.00000
  31        2PY         0.00000  -0.25023   0.00000   0.00000   0.00000
  32        2PZ         0.18026   0.00000  -0.02044  -0.36080   0.58686
  33        3S          2.34389   0.00000  -2.19499   3.84544  -0.47235
  34        3PX         0.00000   0.00000   0.00000   0.00000   0.00000
  35        3PY         0.00000  -1.25516   0.00000   0.00000   0.00000
  36        3PZ         2.07571   0.00000  -2.14476   2.47693  -0.95699
  37 5   H  1S          0.03230  -0.02301  -0.06712   0.06875  -0.13712
  38        2S          0.32175   1.22919  -0.23549   0.07737  -0.06155
  39 6   H  1S          0.03230   0.02301  -0.06712   0.06875  -0.13712
  40        2S          0.32175  -1.22919  -0.23549   0.07737  -0.06155
  41 7   H  1S         -0.03230   0.02301  -0.06712  -0.06875  -0.13712
  42        2S         -0.32175  -1.22919  -0.23549  -0.07737  -0.06155
  43 8   H  1S         -0.03230  -0.02301  -0.06712  -0.06875  -0.13712
  44        2S         -0.32175   1.22919  -0.23549  -0.07737  -0.06155
                          26        27        28        29        30
                       (B3U)--V  (B2U)--V  (B2G)--V  (B3G)--V  (B3U)--V
     EIGENVALUES --     0.00000   0.00000   0.00000   0.00000   0.00000
   1 1   C  1S          0.00000   0.00000   0.00000   0.00000   0.00000
   2        2S          0.00000   0.00000   0.00000   0.00000   0.00000
   3        2PX         0.50624   0.00000  -0.73526   0.00000  -0.52945
   4        2PY         0.00000   0.20978   0.00000  -0.21907   0.00000
   5        2PZ         0.00000   0.00000   0.00000   0.00000   0.00000
   6        3S          0.00000   0.00000   0.00000   0.00000   0.00000
   7        3PX        -0.41380   0.00000   0.81753   0.00000   0.75114
   8        3PY         0.00000  -0.49783   0.00000   0.44911   0.00000
   9        3PZ         0.00000   0.00000   0.00000   0.00000   0.00000
  10 2   C  1S          0.00000   0.00000   0.00000   0.00000   0.00000
  11        2S          0.00000   0.00000   0.00000   0.00000   0.00000
  12        2PX         0.54577   0.00000  -0.14171   0.00000   0.49937
  13        2PY         0.00000   0.66655   0.00000  -0.55919   0.00000
  14        2PZ         0.00000   0.00000   0.00000   0.00000   0.00000
  15        3S          0.00000   0.00000   0.00000   0.00000   0.00000
  16        3PX        -0.36047   0.00000  -0.22105   0.00000  -0.60716
  17        3PY         0.00000  -0.42589   0.00000   0.77663   0.00000
  18        3PZ         0.00000   0.00000   0.00000   0.00000   0.00000
  19 3   C  1S          0.00000   0.00000   0.00000   0.00000   0.00000
  20        2S          0.00000   0.00000   0.00000   0.00000   0.00000
  21        2PX         0.54577   0.00000   0.14171   0.00000   0.49937
  22        2PY         0.00000   0.66655   0.00000   0.55919   0.00000
  23        2PZ         0.00000   0.00000   0.00000   0.00000   0.00000
  24        3S          0.00000   0.00000   0.00000   0.00000   0.00000
  25        3PX        -0.36047   0.00000   0.22105   0.00000  -0.60716
  26        3PY         0.00000  -0.42589   0.00000  -0.77663   0.00000
  27        3PZ         0.00000   0.00000   0.00000   0.00000   0.00000
  28 4   C  1S          0.00000   0.00000   0.00000   0.00000   0.00000
  29        2S          0.00000   0.00000   0.00000   0.00000   0.00000
  30        2PX         0.50624   0.00000   0.73526   0.00000  -0.52945
  31        2PY         0.00000   0.20978   0.00000   0.21907   0.00000
  32        2PZ         0.00000   0.00000   0.00000   0.00000   0.00000
  33        3S          0.00000   0.00000   0.00000   0.00000   0.00000
  34        3PX        -0.41380   0.00000  -0.81753   0.00000   0.75114
  35        3PY         0.00000  -0.49783   0.00000  -0.44911   0.00000
  36        3PZ         0.00000   0.00000   0.00000   0.00000   0.00000
  37 5   H  1S          0.00000   0.18310   0.00000   0.28186   0.00000
  38        2S          0.00000   0.15755   0.00000   0.08938   0.00000
  39 6   H  1S          0.00000  -0.18310   0.00000  -0.28186   0.00000
  40        2S          0.00000  -0.15755   0.00000  -0.08938   0.00000
  41 7   H  1S          0.00000   0.18310   0.00000  -0.28186   0.00000
  42        2S          0.00000   0.15755   0.00000  -0.08938   0.00000
  43 8   H  1S          0.00000  -0.18310   0.00000   0.28186   0.00000
  44        2S          0.00000  -0.15755   0.00000   0.08938   0.00000
                          31        32        33        34        35
                       (B1U)--V   (AG)--V  (B2G)--V  (B2U)--V  (B3G)--V
     EIGENVALUES --     0.00000   0.00000   0.00000   0.00000   0.00000
   1 1   C  1S         -0.05696  -0.05138   0.00000   0.00000   0.00000
   2        2S         -0.23134  -0.24678   0.00000   0.00000   0.00000
   3        2PX         0.00000   0.00000   0.07003   0.00000   0.00000
   4        2PY         0.00000   0.00000   0.00000  -0.46408  -0.78339
   5        2PZ         0.07414   0.15594   0.00000   0.00000   0.00000
   6        3S         -0.30243   0.15020   0.00000   0.00000   0.00000
   7        3PX         0.00000   0.00000  -0.62644   0.00000   0.00000
   8        3PY         0.00000   0.00000   0.00000   1.44405   1.50265
   9        3PZ         0.28126   0.02438   0.00000   0.00000   0.00000
  10 2   C  1S          0.03169   0.02921   0.00000   0.00000   0.00000
  11        2S         -0.30833  -0.42946   0.00000   0.00000   0.00000
  12        2PX         0.00000   0.00000  -0.69633   0.00000   0.00000
  13        2PY         0.00000   0.00000   0.00000   0.34701   0.08137
  14        2PZ        -0.37249  -0.21487   0.00000   0.00000   0.00000
  15        3S         -0.87670   0.41680   0.00000   0.00000   0.00000
  16        3PX         0.00000   0.00000   1.62068   0.00000   0.00000
  17        3PY         0.00000   0.00000   0.00000  -0.64182  -0.63702
  18        3PZ         1.56194   0.32856   0.00000   0.00000   0.00000
  19 3   C  1S         -0.03169   0.02921   0.00000   0.00000   0.00000
  20        2S          0.30833  -0.42946   0.00000   0.00000   0.00000
  21        2PX         0.00000   0.00000   0.69633   0.00000   0.00000
  22        2PY         0.00000   0.00000   0.00000   0.34701  -0.08137
  23        2PZ        -0.37249   0.21487   0.00000   0.00000   0.00000
  24        3S          0.87670   0.41680   0.00000   0.00000   0.00000
  25        3PX         0.00000   0.00000  -1.62068   0.00000   0.00000
  26        3PY         0.00000   0.00000   0.00000  -0.64182   0.63702
  27        3PZ         1.56194  -0.32856   0.00000   0.00000   0.00000
  28 4   C  1S          0.05696  -0.05138   0.00000   0.00000   0.00000
  29        2S          0.23134  -0.24678   0.00000   0.00000   0.00000
  30        2PX         0.00000   0.00000  -0.07003   0.00000   0.00000
  31        2PY         0.00000   0.00000   0.00000  -0.46408   0.78339
  32        2PZ         0.07414  -0.15594   0.00000   0.00000   0.00000
  33        3S          0.30243   0.15020   0.00000   0.00000   0.00000
  34        3PX         0.00000   0.00000   0.62644   0.00000   0.00000
  35        3PY         0.00000   0.00000   0.00000   1.44405  -1.50265
  36        3PZ         0.28126  -0.02438   0.00000   0.00000   0.00000
  37 5   H  1S          0.52629  -0.54010   0.00000  -0.39404  -0.34870
  38        2S         -0.22168   0.25423   0.00000  -0.32788   1.01802
  39 6   H  1S          0.52629  -0.54010   0.00000   0.39404   0.34870
  40        2S         -0.22168   0.25423   0.00000   0.32788  -1.01802
  41 7   H  1S         -0.52629  -0.54010   0.00000  -0.39404   0.34870
  42        2S          0.22168   0.25423   0.00000  -0.32788  -1.01802
  43 8   H  1S         -0.52629  -0.54010   0.00000   0.39404  -0.34870
  44        2S          0.22168   0.25423   0.00000   0.32788   1.01802
                          36        37        38        39        40
                       (B1U)--V  (B2U)--V   (AG)--V   (AG)--V  (B1U)--V
     EIGENVALUES --     0.00000   0.00000   0.00000   0.00000   0.00000
   1 1   C  1S         -0.00333   0.00000   0.03431   0.04874   0.06249
   2        2S         -0.30844   0.00000  -0.01561  -0.70510  -0.41855
   3        2PX         0.00000   0.00000   0.00000   0.00000   0.00000
   4        2PY         0.00000   0.65276   0.00000   0.00000   0.00000
   5        2PZ        -0.62584   0.00000   0.55248  -0.14458   0.34579
   6        3S          0.61589   0.00000  -1.57361  -0.70538  -4.23575
   7        3PX         0.00000   0.00000   0.00000   0.00000   0.00000
   8        3PY         0.00000  -0.84504   0.00000   0.00000   0.00000
   9        3PZ         0.68750   0.00000   0.17497   1.24050   2.06797
  10 2   C  1S         -0.01578   0.00000  -0.05078   0.00223   0.06415
  11        2S         -0.12410   0.00000   0.71855  -0.40460  -0.64175
  12        2PX         0.00000   0.00000   0.00000   0.00000   0.00000
  13        2PY         0.00000  -0.00708   0.00000   0.00000   0.00000
  14        2PZ        -0.68205   0.00000  -0.22968  -0.45932   0.06327
  15        3S          0.74848   0.00000   0.82018   2.22518  -4.75414
  16        3PX         0.00000   0.00000   0.00000   0.00000   0.00000
  17        3PY         0.00000   0.07831   0.00000   0.00000   0.00000
  18        3PZ         0.11123   0.00000   1.63296   1.99522   8.81018
  19 3   C  1S          0.01578   0.00000  -0.05078   0.00223  -0.06415
  20        2S          0.12410   0.00000   0.71855  -0.40460   0.64175
  21        2PX         0.00000   0.00000   0.00000   0.00000   0.00000
  22        2PY         0.00000  -0.00708   0.00000   0.00000   0.00000
  23        2PZ        -0.68205   0.00000   0.22968   0.45932   0.06327
  24        3S         -0.74848   0.00000   0.82018   2.22518   4.75414
  25        3PX         0.00000   0.00000   0.00000   0.00000   0.00000
  26        3PY         0.00000   0.07831   0.00000   0.00000   0.00000
  27        3PZ         0.11123   0.00000  -1.63296  -1.99522   8.81018
  28 4   C  1S          0.00333   0.00000   0.03431   0.04874  -0.06249
  29        2S          0.30844   0.00000  -0.01561  -0.70510   0.41855
  30        2PX         0.00000   0.00000   0.00000   0.00000   0.00000
  31        2PY         0.00000   0.65276   0.00000   0.00000   0.00000
  32        2PZ        -0.62584   0.00000  -0.55248   0.14458   0.34579
  33        3S         -0.61589   0.00000  -1.57361  -0.70538   4.23575
  34        3PX         0.00000   0.00000   0.00000   0.00000   0.00000
  35        3PY         0.00000  -0.84504   0.00000   0.00000   0.00000
  36        3PZ         0.68750   0.00000  -0.17497  -1.24050   2.06797
  37 5   H  1S         -0.25078  -0.51886  -0.03848   0.33278  -0.31089
  38        2S          0.55055   0.86250   0.19987  -0.66671   0.40238
  39 6   H  1S         -0.25078   0.51886  -0.03848   0.33278  -0.31089
  40        2S          0.55055  -0.86250   0.19987  -0.66671   0.40238
  41 7   H  1S          0.25078  -0.51886  -0.03848   0.33278   0.31089
  42        2S         -0.55055   0.86250   0.19987  -0.66671  -0.40238
  43 8   H  1S          0.25078   0.51886  -0.03848   0.33278   0.31089
  44        2S         -0.55055  -0.86250   0.19987  -0.66671  -0.40238
                          41        42        43        44
                       (B3G)--V  (B1U)--V   (AG)--V  (B1U)--V
     EIGENVALUES --     0.00000   0.00000   0.00000   0.00000
   1 1   C  1S          0.00000   0.01381  -0.02412   0.01606
   2        2S          0.00000   1.18193  -1.15164  -0.33943
   3        2PX         0.00000   0.00000   0.00000   0.00000
   4        2PY        -0.24376   0.00000   0.00000   0.00000
   5        2PZ         0.00000   0.21541  -0.07168   0.41562
   6        3S          0.00000  -7.24563   4.82687  -5.36080
   7        3PX         0.00000   0.00000   0.00000   0.00000
   8        3PY         1.91847   0.00000   0.00000   0.00000
   9        3PZ         0.00000   2.41760  -1.71399   2.04754
  10 2   C  1S          0.00000   0.01884  -0.00120   0.04291
  11        2S          0.00000  -0.14124   0.53732   1.22837
  12        2PX         0.00000   0.00000   0.00000   0.00000
  13        2PY         0.43072   0.00000   0.00000   0.00000
  14        2PZ         0.00000  -0.52680   0.47825  -0.49357
  15        3S          0.00000  -5.04792  -4.04222 -11.90157
  16        3PX         0.00000   0.00000   0.00000   0.00000
  17        3PY        -1.94074   0.00000   0.00000   0.00000
  18        3PZ         0.00000  10.07626  -3.15322  13.26313
  19 3   C  1S          0.00000  -0.01884  -0.00120  -0.04291
  20        2S          0.00000   0.14124   0.53732  -1.22837
  21        2PX         0.00000   0.00000   0.00000   0.00000
  22        2PY        -0.43072   0.00000   0.00000   0.00000
  23        2PZ         0.00000  -0.52680  -0.47825  -0.49357
  24        3S          0.00000   5.04792  -4.04222  11.90157
  25        3PX         0.00000   0.00000   0.00000   0.00000
  26        3PY         1.94074   0.00000   0.00000   0.00000
  27        3PZ         0.00000  10.07626   3.15322  13.26313
  28 4   C  1S          0.00000  -0.01381  -0.02412  -0.01606
  29        2S          0.00000  -1.18193  -1.15164   0.33943
  30        2PX         0.00000   0.00000   0.00000   0.00000
  31        2PY         0.24376   0.00000   0.00000   0.00000
  32        2PZ         0.00000   0.21541   0.07168   0.41562
  33        3S          0.00000   7.24563   4.82687   5.36080
  34        3PX         0.00000   0.00000   0.00000   0.00000
  35        3PY        -1.91847   0.00000   0.00000   0.00000
  36        3PZ         0.00000   2.41760   1.71399   2.04754
  37 5   H  1S          0.55411  -0.16515  -0.16140  -0.09009
  38        2S          0.41145  -0.28873  -0.22051   0.09303
  39 6   H  1S         -0.55411  -0.16515  -0.16140  -0.09009
  40        2S         -0.41145  -0.28873  -0.22051   0.09303
  41 7   H  1S         -0.55411   0.16515  -0.16140   0.09009
  42        2S         -0.41145   0.28873  -0.22051  -0.09303
  43 8   H  1S          0.55411   0.16515  -0.16140   0.09009
  44        2S          0.41145   0.28873  -0.22051  -0.09303
      DENSITY MATRIX.
                           1         2         3         4         5
   1 1   C  1S          2.03380
   2        2S          0.09850   0.11907
   3        2PX         0.00000   0.00000   0.24786
   4        2PY         0.00000   0.00000   0.00000   0.29668
   5        2PZ        -0.00495  -0.00914   0.00000   0.00000   0.30195
   6        3S         -0.35444   0.20664   0.00000   0.00000   0.16849
   7        3PX         0.00000   0.00000   0.27341   0.00000   0.00000
   8        3PY         0.00000   0.00000   0.00000   0.25348   0.00000
   9        3PZ        -0.00046   0.01767   0.00000   0.00000   0.12321
  10 2   C  1S          0.02482  -0.03936   0.00000   0.00000   0.09776
  11        2S         -0.03972   0.03711   0.00000   0.00000  -0.10588
  12        2PX         0.00000   0.00000   0.17572   0.00000   0.00000
  13        2PY         0.00000   0.00000   0.00000   0.03530   0.00000
  14        2PZ        -0.07452   0.08220   0.00000   0.00000  -0.21830
  15        3S          0.06303   0.02623   0.00000   0.00000  -0.18526
  16        3PX         0.00000   0.00000   0.17800   0.00000   0.00000
  17        3PY         0.00000   0.00000   0.00000  -0.02284   0.00000
  18        3PZ        -0.01433   0.05560   0.00000   0.00000  -0.24116
  19 3   C  1S         -0.00530   0.00770   0.00000   0.00000  -0.01818
  20        2S          0.00732  -0.00818   0.00000   0.00000   0.02044
  21        2PX         0.00000   0.00000  -0.00446   0.00000   0.00000
  22        2PY         0.00000   0.00000   0.00000  -0.01942   0.00000
  23        2PZ         0.01415  -0.01599   0.00000   0.00000   0.04419
  24        3S          0.00116   0.00205   0.00000   0.00000  -0.03861
  25        3PX         0.00000   0.00000  -0.03662   0.00000   0.00000
  26        3PY         0.00000   0.00000   0.00000  -0.01986   0.00000
  27        3PZ        -0.04319   0.02090   0.00000   0.00000  -0.05863
  28 4   C  1S          0.00158  -0.00085   0.00000   0.00000   0.00567
  29        2S         -0.00085   0.00100   0.00000   0.00000  -0.00469
  30        2PX         0.00000   0.00000  -0.07545   0.00000   0.00000
  31        2PY         0.00000   0.00000   0.00000   0.00118   0.00000
  32        2PZ        -0.00567   0.00469   0.00000   0.00000  -0.01479
  33        3S         -0.03492   0.01882   0.00000   0.00000  -0.04997
  34        3PX         0.00000   0.00000  -0.10199   0.00000   0.00000
  35        3PY         0.00000   0.00000   0.00000  -0.00638   0.00000
  36        3PZ        -0.01745   0.01073   0.00000   0.00000  -0.02723
  37 5   H  1S          0.00114  -0.00093   0.00000   0.00453   0.00216
  38        2S          0.00045  -0.00071   0.00000   0.01143   0.00290
  39 6   H  1S          0.00114  -0.00093   0.00000  -0.00453   0.00216
  40        2S          0.00045  -0.00071   0.00000  -0.01143   0.00290
  41 7   H  1S         -0.06402   0.06116   0.00000   0.17456   0.10481
  42        2S          0.00696   0.01749   0.00000   0.13430   0.09124
  43 8   H  1S         -0.06402   0.06116   0.00000  -0.17456   0.10481
  44        2S          0.00696   0.01749   0.00000  -0.13430   0.09124
                           6         7         8         9        10
   6        3S          0.62654
   7        3PX         0.00000   0.30356
   8        3PY         0.00000   0.00000   0.22069
   9        3PZ         0.10527   0.00000   0.00000   0.05741
  10 2   C  1S         -0.00484   0.00000   0.00000   0.01161   2.03373
  11        2S          0.01361   0.00000   0.00000  -0.02941   0.08299
  12        2PX         0.00000   0.18351   0.00000   0.00000   0.00000
  13        2PY         0.00000   0.00000  -0.00151   0.00000   0.00000
  14        2PZ         0.06005   0.00000   0.00000  -0.08528  -0.00520
  15        3S         -0.07518   0.00000   0.00000  -0.06550  -0.33144
  16        3PX         0.00000   0.18914   0.00000   0.00000   0.00000
  17        3PY         0.00000   0.00000  -0.05088   0.00000   0.00000
  18        3PZ        -0.05063   0.00000   0.00000  -0.08429   0.00990
  19 3   C  1S          0.02648   0.00000   0.00000  -0.01722   0.03053
  20        2S          0.02119   0.00000   0.00000  -0.00026  -0.05180
  21        2PX         0.00000  -0.02539   0.00000   0.00000   0.00000
  22        2PY         0.00000   0.00000  -0.04290   0.00000   0.00000
  23        2PZ        -0.06044   0.00000   0.00000   0.04560  -0.09711
  24        3S          0.00602   0.00000   0.00000  -0.02083   0.01119
  25        3PX         0.00000  -0.05971   0.00000   0.00000   0.00000
  26        3PY         0.00000   0.00000  -0.04189   0.00000   0.00000
  27        3PZ        -0.03250   0.00000   0.00000   0.00518   0.02170
  28 4   C  1S         -0.03492   0.00000   0.00000   0.01745  -0.00530
  29        2S          0.01882   0.00000   0.00000  -0.01073   0.00770
[...]
                                                                                                                                     
                                                                                                                                     
                                                                                                                                     
                                                                                                                                     
                                                                                                                                     
                                                                                                                                     
                                                                                                                                     
 
 ***** Axes restored to original set *****
 -------------------------------------------------------------------
 Center     Atomic                   Forces (Hartrees/Bohr)
 Number     Number              X              Y              Z
 -------------------------------------------------------------------
    1          6           0.000000000    0.000000000    0.000011264
    2          6           0.000000000    0.000000000    0.000075970
    3          6           0.000000000    0.000000000   -0.000075970
    4          6           0.000000000    0.000000000   -0.000011264
    5          1           0.000000000    0.000002748    0.000012149
    6          1           0.000000000   -0.000002748    0.000012149
    7          1           0.000000000    0.000002748   -0.000012149
    8          1           0.000000000   -0.000002748   -0.000012149
 -------------------------------------------------------------------
 Cartesian Forces:  Max     0.000075970 RMS     0.000022746
 ------------------------------------------------------------------------
           Internal Coordinate Forces (Hartree/Bohr or radian)
 Cent Atom N1     Length/X     N2     Alpha/Y      N3      Beta/Z       J
 ------------------------------------------------------------------------
   1  C         0.000000(   1)      0.000000(   9)      0.000011(  17)
   2  C         0.000000(   2)      0.000000(  10)      0.000076(  18)
   3  C         0.000000(   3)      0.000000(  11)     -0.000076(  19)
   4  C         0.000000(   4)      0.000000(  12)     -0.000011(  20)
   5  H         0.000000(   5)      0.000003(  13)      0.000012(  21)
   6  H         0.000000(   6)     -0.000003(  14)      0.000012(  22)
   7  H         0.000000(   7)      0.000003(  15)     -0.000012(  23)
   8  H         0.000000(   8)     -0.000003(  16)     -0.000012(  24)
 ------------------------------------------------------------------------
 Internal  Forces:  Max     0.000075970 RMS     0.000022746
 Force constants in Cartesian coordinates: 
                1             2             3             4             5
      1  0.862712D-01
      2  0.000000D+00  0.659659D+00
      3  0.000000D+00  0.000000D+00  0.846800D+00
      4 -0.350907D-01  0.000000D+00  0.000000D+00  0.704186D-01
      5  0.000000D+00 -0.791067D-01  0.000000D+00  0.000000D+00  0.836924D-01
      6  0.000000D+00  0.000000D+00 -0.522448D+00  0.000000D+00  0.000000D+00
      7  0.508066D-02  0.000000D+00  0.000000D+00 -0.537189D-01  0.000000D+00
      8  0.000000D+00  0.240172D-02  0.000000D+00  0.000000D+00 -0.210891D-01
      9  0.000000D+00  0.000000D+00 -0.656989D-01  0.000000D+00  0.000000D+00
     10  0.486620D-03  0.000000D+00  0.000000D+00  0.508066D-02  0.000000D+00
     11  0.000000D+00  0.526461D-02  0.000000D+00  0.000000D+00  0.240172D-02
     12  0.000000D+00  0.000000D+00  0.272796D-01  0.000000D+00  0.000000D+00
     13  0.342040D-05  0.000000D+00  0.000000D+00  0.329063D-02  0.000000D+00
     14  0.000000D+00 -0.840995D-04  0.356558D-03  0.000000D+00 -0.309011D-03
     15  0.000000D+00 -0.104081D-02 -0.325350D-03  0.000000D+00  0.765401D-03
     16  0.342040D-05  0.000000D+00  0.000000D+00  0.329063D-02  0.000000D+00
     17  0.000000D+00 -0.840995D-04 -0.356558D-03  0.000000D+00 -0.309011D-03
     18  0.000000D+00  0.104081D-02 -0.325350D-03  0.000000D+00 -0.765401D-03
     19 -0.283773D-01  0.000000D+00  0.000000D+00  0.336452D-02  0.000000D+00
     20  0.000000D+00 -0.294025D+00 -0.135635D+00  0.000000D+00  0.735986D-02
     21  0.000000D+00 -0.133932D+00 -0.142641D+00  0.000000D+00 -0.307360D-01
     22 -0.283773D-01  0.000000D+00  0.000000D+00  0.336452D-02  0.000000D+00
     23  0.000000D+00 -0.294025D+00  0.135635D+00  0.000000D+00  0.735986D-02
     24  0.000000D+00  0.133932D+00 -0.142641D+00  0.000000D+00  0.307360D-01
                6             7             8             9            10
      6  0.134598D+01
      7  0.000000D+00  0.704186D-01
      8  0.000000D+00  0.000000D+00  0.836924D-01
      9 -0.710547D+00  0.000000D+00  0.000000D+00  0.134598D+01
     10  0.000000D+00 -0.350907D-01  0.000000D+00  0.000000D+00  0.862712D-01
     11  0.000000D+00  0.000000D+00 -0.791067D-01  0.000000D+00  0.000000D+00
     12 -0.656989D-01  0.000000D+00  0.000000D+00 -0.522448D+00  0.000000D+00
     13  0.000000D+00  0.336452D-02  0.000000D+00  0.000000D+00 -0.283773D-01
     14 -0.193706D-02  0.000000D+00  0.735986D-02 -0.124784D-02  0.000000D+00
     15  0.106468D-03  0.000000D+00  0.307360D-01 -0.237489D-01  0.000000D+00
     16  0.000000D+00  0.336452D-02  0.000000D+00  0.000000D+00 -0.283773D-01
     17  0.193706D-02  0.000000D+00  0.735986D-02  0.124784D-02  0.000000D+00
     18  0.106468D-03  0.000000D+00 -0.307360D-01 -0.237489D-01  0.000000D+00
     19  0.000000D+00  0.329063D-02  0.000000D+00  0.000000D+00  0.342040D-05
     20  0.124784D-02  0.000000D+00 -0.309011D-03  0.193706D-02  0.000000D+00
     21 -0.237489D-01  0.000000D+00 -0.765401D-03  0.106468D-03  0.000000D+00
     22  0.000000D+00  0.329063D-02  0.000000D+00  0.000000D+00  0.342040D-05
     23 -0.124784D-02  0.000000D+00 -0.309011D-03 -0.193706D-02  0.000000D+00
     24 -0.237489D-01  0.000000D+00  0.765401D-03  0.106468D-03  0.000000D+00
               11            12            13            14            15
     11  0.659659D+00
     12  0.000000D+00  0.846800D+00
     13  0.000000D+00  0.000000D+00  0.165716D-01
     14 -0.294025D+00  0.135635D+00  0.000000D+00  0.305944D+00
     15  0.133932D+00 -0.142641D+00  0.000000D+00 -0.148577D+00  0.154699D+00
     16  0.000000D+00  0.000000D+00  0.533537D-02  0.000000D+00  0.000000D+00
     17 -0.294025D+00 -0.135635D+00  0.000000D+00 -0.188687D-01 -0.158516D-01
     18 -0.133932D+00 -0.142641D+00  0.000000D+00  0.158516D-01  0.122932D-01
     19  0.000000D+00  0.000000D+00 -0.571301D-02  0.000000D+00  0.000000D+00
     20 -0.840995D-04 -0.356558D-03  0.000000D+00 -0.159570D-04  0.588847D-04
     21  0.104081D-02 -0.325350D-03  0.000000D+00 -0.588847D-04 -0.419322D-03
     22  0.000000D+00  0.000000D+00  0.552476D-02  0.000000D+00  0.000000D+00
     23 -0.840995D-04  0.356558D-03  0.000000D+00  0.000000D+00 -0.228998D-04
     24 -0.104081D-02 -0.325350D-03  0.000000D+00 -0.228998D-04  0.354915D-04
               16            17            18            19            20
     16  0.165716D-01
     17  0.000000D+00  0.305944D+00
     18  0.000000D+00  0.148577D+00  0.154699D+00
     19  0.552476D-02  0.000000D+00  0.000000D+00  0.165716D-01
     20  0.000000D+00  0.000000D+00  0.228998D-04  0.000000D+00  0.305944D+00
     21  0.000000D+00  0.228998D-04  0.354915D-04  0.000000D+00  0.148577D+00
     22 -0.571301D-02  0.000000D+00  0.000000D+00  0.533537D-02  0.000000D+00
     23  0.000000D+00 -0.159570D-04 -0.588847D-04  0.000000D+00 -0.188687D-01
     24  0.000000D+00  0.588847D-04 -0.419322D-03  0.000000D+00 -0.158516D-01
               21            22            23            24
     21  0.154699D+00
     22  0.000000D+00  0.165716D-01
     23  0.158516D-01  0.000000D+00  0.305944D+00
     24  0.122932D-01  0.000000D+00 -0.148577D+00  0.154699D+00
 Force constants in internal coordinates: 
                1             2             3             4             5
      1  0.862712D-01
      2 -0.350907D-01  0.704186D-01
      3  0.508066D-02 -0.537189D-01  0.704186D-01
      4  0.486620D-03  0.508066D-02 -0.350907D-01  0.862712D-01
      5  0.342040D-05  0.329063D-02  0.336452D-02 -0.283773D-01  0.165716D-01
      6  0.342040D-05  0.329063D-02  0.336452D-02 -0.283773D-01  0.533537D-02
      7 -0.283773D-01  0.336452D-02  0.329063D-02  0.342040D-05 -0.571301D-02
      8 -0.283773D-01  0.336452D-02  0.329063D-02  0.342040D-05  0.552476D-02
      9  0.000000D+00  0.000000D+00  0.000000D+00  0.000000D+00  0.000000D+00
     10  0.000000D+00  0.000000D+00  0.000000D+00  0.000000D+00  0.000000D+00
     11  0.000000D+00  0.000000D+00  0.000000D+00  0.000000D+00  0.000000D+00
     12  0.000000D+00  0.000000D+00  0.000000D+00  0.000000D+00  0.000000D+00
     13  0.000000D+00  0.000000D+00  0.000000D+00  0.000000D+00  0.000000D+00
     14  0.000000D+00  0.000000D+00  0.000000D+00  0.000000D+00  0.000000D+00
     15  0.000000D+00  0.000000D+00  0.000000D+00  0.000000D+00  0.000000D+00
     16  0.000000D+00  0.000000D+00  0.000000D+00  0.000000D+00  0.000000D+00
     17  0.000000D+00  0.000000D+00  0.000000D+00  0.000000D+00  0.000000D+00
     18  0.000000D+00  0.000000D+00  0.000000D+00  0.000000D+00  0.000000D+00
     19  0.000000D+00  0.000000D+00  0.000000D+00  0.000000D+00  0.000000D+00
     20  0.000000D+00  0.000000D+00  0.000000D+00  0.000000D+00  0.000000D+00
     21  0.000000D+00  0.000000D+00  0.000000D+00  0.000000D+00  0.000000D+00
     22  0.000000D+00  0.000000D+00  0.000000D+00  0.000000D+00  0.000000D+00
     23  0.000000D+00  0.000000D+00  0.000000D+00  0.000000D+00  0.000000D+00
     24  0.000000D+00  0.000000D+00  0.000000D+00  0.000000D+00  0.000000D+00
                6             7             8             9            10
      6  0.165716D-01
      7  0.552476D-02  0.165716D-01
      8 -0.571301D-02  0.533537D-02  0.165716D-01
      9  0.000000D+00  0.000000D+00  0.000000D+00  0.659659D+00
     10  0.000000D+00  0.000000D+00  0.000000D+00 -0.791067D-01  0.836924D-01
     11  0.000000D+00  0.000000D+00  0.000000D+00  0.240172D-02 -0.210891D-01
     12  0.000000D+00  0.000000D+00  0.000000D+00  0.526461D-02  0.240172D-02
     13  0.000000D+00  0.000000D+00  0.000000D+00 -0.840995D-04 -0.309011D-03
     14  0.000000D+00  0.000000D+00  0.000000D+00 -0.840995D-04 -0.309011D-03
     15  0.000000D+00  0.000000D+00  0.000000D+00 -0.294025D+00  0.735986D-02
     16  0.000000D+00  0.000000D+00  0.000000D+00 -0.294025D+00  0.735986D-02
     17  0.000000D+00  0.000000D+00  0.000000D+00  0.000000D+00  0.000000D+00
     18  0.000000D+00  0.000000D+00  0.000000D+00  0.000000D+00  0.000000D+00
     19  0.000000D+00  0.000000D+00  0.000000D+00  0.000000D+00  0.000000D+00
     20  0.000000D+00  0.000000D+00  0.000000D+00  0.000000D+00  0.000000D+00
     21  0.000000D+00  0.000000D+00  0.000000D+00 -0.104081D-02  0.765401D-03
     22  0.000000D+00  0.000000D+00  0.000000D+00  0.104081D-02 -0.765401D-03
     23  0.000000D+00  0.000000D+00  0.000000D+00 -0.133932D+00 -0.307360D-01
     24  0.000000D+00  0.000000D+00  0.000000D+00  0.133932D+00  0.307360D-01
               11            12            13            14            15
     11  0.836924D-01
     12 -0.791067D-01  0.659659D+00
     13  0.735986D-02 -0.294025D+00  0.305944D+00
     14  0.735986D-02 -0.294025D+00 -0.188687D-01  0.305944D+00
     15 -0.309011D-03 -0.840995D-04 -0.159570D-04  0.000000D+00  0.305944D+00
     16 -0.309011D-03 -0.840995D-04  0.000000D+00 -0.159570D-04 -0.188687D-01
     17  0.000000D+00  0.000000D+00  0.356558D-03 -0.356558D-03 -0.135635D+00
     18  0.000000D+00  0.000000D+00 -0.193706D-02  0.193706D-02  0.124784D-02
     19  0.000000D+00  0.000000D+00 -0.124784D-02  0.124784D-02  0.193706D-02
     20  0.000000D+00  0.000000D+00  0.135635D+00 -0.135635D+00 -0.356558D-03
     21  0.307360D-01  0.133932D+00 -0.148577D+00 -0.158516D-01  0.588847D-04
     22 -0.307360D-01 -0.133932D+00  0.158516D-01  0.148577D+00  0.228998D-04
     23 -0.765401D-03  0.104081D-02 -0.588847D-04  0.228998D-04  0.148577D+00
     24  0.765401D-03 -0.104081D-02 -0.228998D-04  0.588847D-04 -0.158516D-01
               16            17            18            19            20
     16  0.305944D+00
     17  0.135635D+00  0.846800D+00
     18 -0.124784D-02 -0.522448D+00  0.134598D+01
     19 -0.193706D-02 -0.656989D-01 -0.710547D+00  0.134598D+01
     20  0.356558D-03  0.272796D-01 -0.656989D-01 -0.522448D+00  0.846800D+00
     21 -0.228998D-04 -0.325350D-03  0.106468D-03 -0.237489D-01 -0.142641D+00
     22 -0.588847D-04 -0.325350D-03  0.106468D-03 -0.237489D-01 -0.142641D+00
     23  0.158516D-01 -0.142641D+00 -0.237489D-01  0.106468D-03 -0.325350D-03
     24 -0.148577D+00 -0.142641D+00 -0.237489D-01  0.106468D-03 -0.325350D-03
               21            22            23            24
     21  0.154699D+00
     22  0.122932D-01  0.154699D+00
     23 -0.419322D-03  0.354915D-04  0.154699D+00
     24  0.354915D-04 -0.419322D-03  0.122932D-01  0.154699D+00
 Leave Link  716 at Thu Aug 21 17:09:33 2014, MaxMem=    6291456 cpu:       0.0
 (Enter /home/software/gaussian/g03/l103.exe)

 GradGradGradGradGradGradGradGradGradGradGradGradGradGradGradGradGradGrad
 Berny optimization.
 Search for a local minimum.
 Step number   1 out of a maximum of   2
 All quantities printed in internal units (Hartrees-Bohrs-Radians)
 Second derivative matrix not updated -- analytic derivatives used.
     Eigenvalues ---    0.00371   0.00846   0.02087   0.02247   0.06613
     Eigenvalues ---    0.07329   0.11020   0.12909   0.14428   0.15047
     Eigenvalues ---    0.16403   0.25350   0.43135   0.83202   0.87899
     Eigenvalues ---    0.92330   1.39050   2.20940
 Angle between quadratic step and forces=  62.24 degrees.
 Linear search not attempted -- first point.
 TrRot=  0.000000  0.000000  0.000000  0.000000  0.000000  0.000000
 Variable       Old X    -DE/DX   Delta X   Delta X   Delta X     New X
                                 (Linear)    (Quad)   (Total)
    X1        0.00000   0.00000   0.00000   0.00000   0.00000   0.00000
    Y1        0.00000   0.00000   0.00000   0.00000   0.00000   0.00000
    Z1        3.70376   0.00001   0.00000   0.00002   0.00002   3.70379
    X2        0.00000   0.00000   0.00000   0.00000   0.00000   0.00000
    Y2        0.00000   0.00000   0.00000   0.00000   0.00000   0.00000
    Z2        1.19233   0.00008   0.00000   0.00004   0.00004   1.19237
    X3        0.00000   0.00000   0.00000   0.00000   0.00000   0.00000
    Y3        0.00000   0.00000   0.00000   0.00000   0.00000   0.00000
    Z3       -1.19233  -0.00008   0.00000  -0.00004  -0.00004  -1.19237
    X4        0.00000   0.00000   0.00000   0.00000   0.00000   0.00000
    Y4        0.00000   0.00000   0.00000   0.00000   0.00000   0.00000
    Z4       -3.70376  -0.00001   0.00000  -0.00002  -0.00002  -3.70379
    X5        0.00000   0.00000   0.00000   0.00000   0.00000   0.00000
    Y5        1.73448   0.00000   0.00000   0.00006   0.00006   1.73453
    Z5       -4.75395   0.00001   0.00000   0.00009   0.00009  -4.75386
    X6        0.00000   0.00000   0.00000   0.00000   0.00000   0.00000
    Y6       -1.73448   0.00000   0.00000  -0.00006  -0.00006  -1.73453
    Z6       -4.75395   0.00001   0.00000   0.00009   0.00009  -4.75386
    X7        0.00000   0.00000   0.00000   0.00000   0.00000   0.00000
    Y7        1.73448   0.00000   0.00000   0.00006   0.00006   1.73453
    Z7        4.75395  -0.00001   0.00000  -0.00009  -0.00009   4.75386
    X8        0.00000   0.00000   0.00000   0.00000   0.00000   0.00000
    Y8       -1.73448   0.00000   0.00000  -0.00006  -0.00006  -1.73453
    Z8        4.75395  -0.00001   0.00000  -0.00009  -0.00009   4.75386
         Item               Value     Threshold  Converged?
 Maximum Force            0.000076     0.000450     YES
 RMS     Force            0.000023     0.000300     YES
 Maximum Displacement     0.000092     0.001800     YES
 RMS     Displacement     0.000046     0.001200     YES
 Predicted change in Energy=-5.809292D-09
 Optimization completed.
    -- Stationary point found.
 GradGradGradGradGradGradGradGradGradGradGradGradGradGradGradGradGradGrad

 Leave Link  103 at Thu Aug 21 17:09:34 2014, MaxMem=    6291456 cpu:       0.0
 (Enter /home/software/gaussian/g03/l9999.exe)
 1\1\GINC-CHE-HYDRA\Freq\CASSCF\3-21G*\C4H4\GRICHINGS\21-Aug-2014\0\\#P
  CASSCF(6,6,NROOT=1)/3-21G* FREQ=HPMODES GFINPUT POP=FULL\\butatriene\
 \0,1\C,0.,0.,1.959948\C,0.,0.,0.630953\C,0.,0.,-0.630953\C,0.,0.,-1.95
 9948\H,0.,0.917846,-2.515682\H,0.,-0.917846,-2.515682\H,0.,0.917846,2.
 515682\H,0.,-0.917846,2.515682\\Version=AM64L-G03RevC.02\State=1-AG\HF
 =-152.9326465\RMSD=0.000e+00\RMSF=2.275e-05\DipoleDeriv=0.,0.,0.,0.,0.
 ,0.,0.,0.,0.,0.,0.,0.,0.,0.,0.,0.,0.,0.,0.,0.,0.,0.,0.,0.,0.,0.,0.,0.,
 0.,0.,0.,0.,0.,0.,0.,0.,0.,0.,0.,0.,0.,0.,0.,0.,0.,0.,0.,0.,0.,0.,0.,0
 .,0.,0.,0.,0.,0.,0.,0.,0.,0.,0.,0.,0.,0.,0.,0.,0.,0.,0.,0.,0.\Polar=0.
 ,0.,0.,0.,0.,0.\PG=D02H [C2"(C1C1.C1C1),SG(H4)]\NImag=0\\0.08627125,0.
 ,0.65965895,0.,0.,0.84680047,-0.03509070,0.,0.,0.07041864,0.,-0.079106
 74,0.,0.,0.08369239,0.,0.,-0.52244843,0.,0.,1.34597921,0.00508066,0.,0
 .,-0.05371891,0.,0.,0.07041864,0.,0.00240172,0.,0.,-0.02108907,0.,0.,0
 .08369239,0.,0.,-0.06569893,0.,0.,-0.71054689,0.,0.,1.34597921,0.00048
 662,0.,0.,0.00508066,0.,0.,-0.03509070,0.,0.,0.08627125,0.,0.00526461,
 0.,0.,0.00240172,0.,0.,-0.07910674,0.,0.,0.65965895,0.,0.,0.02727956,0
 .,0.,-0.06569893,0.,0.,-0.52244843,0.,0.,0.84680047,0.00000342,0.,0.,0
 .00329063,0.,0.,0.00336452,0.,0.,-0.02837733,0.,0.,0.01657163,0.,-0.00
 008410,0.00035656,0.,-0.00030901,-0.00193706,0.,0.00735986,-0.00124784
 ,0.,-0.29402517,0.13563541,0.,0.30594351,0.,-0.00104081,-0.00032535,0.
 ,0.00076540,0.00010647,0.,0.03073596,-0.02374895,0.,0.13393198,-0.1426
 4098,0.,-0.14857690,0.15469940,0.00000342,0.,0.,0.00329063,0.,0.,0.003
 36452,0.,0.,-0.02837733,0.,0.,0.00533537,0.,0.,0.01657163,0.,-0.000084
 10,-0.00035656,0.,-0.00030901,0.00193706,0.,0.00735986,0.00124784,0.,-
 0.29402517,-0.13563541,0.,-0.01886873,-0.01585162,0.,0.30594351,0.,0.0
 0104081,-0.00032535,0.,-0.00076540,0.00010647,0.,-0.03073596,-0.023748
 95,0.,-0.13393198,-0.14264098,0.,0.01585162,0.01229325,0.,0.14857690,0
 .15469940,-0.02837733,0.,0.,0.00336452,0.,0.,0.00329063,0.,0.,0.000003
 42,0.,0.,-0.00571301,0.,0.,0.00552476,0.,0.,0.01657163,0.,-0.29402517,
 -0.13563541,0.,0.00735986,0.00124784,0.,-0.00030901,0.00193706,0.,-0.0
 0008410,-0.00035656,0.,-0.00001596,0.00005888,0.,-0.00000040,0.0000229
 0,0.,0.30594351,0.,-0.13393198,-0.14264098,0.,-0.03073596,-0.02374895,
 0.,-0.00076540,0.00010647,0.,0.00104081,-0.00032535,0.,-0.00005888,-0.
 00041932,0.,0.00002290,0.00003549,0.,0.14857690,0.15469940,-0.02837733
 ,0.,0.,0.00336452,0.,0.,0.00329063,0.,0.,0.00000342,0.,0.,0.00552476,0
 .,0.,-0.00571301,0.,0.,0.00533537,0.,0.,0.01657163,0.,-0.29402517,0.13
 563541,0.,0.00735986,-0.00124784,0.,-0.00030901,-0.00193706,0.,-0.0000
 8410,0.00035656,0.,-0.00000040,-0.00002290,0.,-0.00001596,-0.00005888,
 0.,-0.01886873,0.01585162,0.,0.30594351,0.,0.13393198,-0.14264098,0.,0
 .03073596,-0.02374895,0.,0.00076540,0.00010647,0.,-0.00104081,-0.00032
 535,0.,-0.00002290,0.00003549,0.,0.00005888,-0.00041932,0.,-0.01585162
 ,0.01229325,0.,-0.14857690,0.15469940\\0.,0.,-0.00001126,0.,0.,-0.0000
 7597,0.,0.,0.00007597,0.,0.,0.00001126,0.,-0.00000275,-0.00001215,0.,0
 .00000275,-0.00001215,0.,-0.00000275,0.00001215,0.,0.00000275,0.000012
 15\\\@


 FRICTION IS A DRAG,
 AND ENTROPY AIN'T WHAT IT USED TO BE.
 Job cpu time:  0 days  0 hours  0 minutes  7.8 seconds.
 File lengths (MBytes):  RWF=     37 Int=      0 D2E=      0 Chk=      7 Scr=      1
 Normal termination of Gaussian 03 at Thu Aug 21 17:09:34 2014.
