butatriene cation                                                       
FOpt      CASSCF                                                      3-21G*              
Number of atoms                            I                8
Info1-9                                    I   N=           9
          19          17           0           0           0         100
           2           1           2
Charge                                     I                0
Multiplicity                               I                1
Number of electrons                        I               28
Number of alpha electrons                  I               14
Number of beta electrons                   I               14
Number of basis functions                  I               44
Number of independent functions            I               44
Number of point charges in /Mol/           I                0
Number of translation vectors              I                0
Atomic numbers                             I   N=           8
           6           6           6           6           1           1
           1           1
Nuclear charges                            R   N=           8
  6.00000000E+00  6.00000000E+00  6.00000000E+00  6.00000000E+00  1.00000000E+00
  1.00000000E+00  1.00000000E+00  1.00000000E+00
Current cartesian coordinates              R   N=          24
 -1.45733385E-15 -9.43483419E-17  3.70376495E+00 -4.06413748E-16 -5.18819709E-17
  1.19232837E+00  7.37472972E-16 -1.15593448E-17 -1.19232837E+00  2.09595536E-15
  3.09070262E-17 -3.70376495E+00  4.35049344E-15  1.73447757E+00 -4.75395002E+00
 -3.99247953E-16 -1.73447757E+00 -4.75395002E+00 -2.10314143E-16  1.73447757E+00
  4.75395002E+00 -4.37786457E-15 -1.73447757E+00  4.75395002E+00
Force Field                                I                0
Int Atom Types                             I   N=           8
           0           0           0           0           0           0
           0           0
MM charges                                 R   N=           8
  0.00000000E+00  0.00000000E+00  0.00000000E+00  0.00000000E+00  0.00000000E+00
  0.00000000E+00  0.00000000E+00  0.00000000E+00
Integer atomic weights                     I   N=           8
          12          12          12          12           1           1
           1           1
Real atomic weights                        R   N=           8
  1.20000000E+01  1.20000000E+01  1.20000000E+01  1.20000000E+01  1.00782504E+00
  1.00782504E+00  1.00782504E+00  1.00782504E+00
Atom fragment info                         I   N=           8
           0           0           0           0           0           0
           0           0
Atom residue num                           I   N=           8
           0           0           0           0           0           0
           0           0
Nuclear spins                              I   N=           8
           0           0           0           0           1           1
           1           1
Nuclear ZEff                               R   N=           8
 -3.60000000E+00 -3.60000000E+00 -3.60000000E+00 -3.60000000E+00 -1.00000000E+00
 -1.00000000E+00 -1.00000000E+00 -1.00000000E+00
Nuclear ZNuc                               R   N=           8
  6.00000000E+00  6.00000000E+00  6.00000000E+00  6.00000000E+00  1.00000000E+00
  1.00000000E+00  1.00000000E+00  1.00000000E+00
Nuclear QMom                               R   N=           8
  0.00000000E+00  0.00000000E+00  0.00000000E+00  0.00000000E+00  0.00000000E+00
  0.00000000E+00  0.00000000E+00  0.00000000E+00
Nuclear GFac                               R   N=           8
  0.00000000E+00  0.00000000E+00  0.00000000E+00  0.00000000E+00  2.79284600E+00
  2.79284600E+00  2.79284600E+00  2.79284600E+00
MicOpt                                     I   N=           8
          -1          -1          -1          -1          -1          -1
          -1          -1
Number of contracted shells                I               20
Number of primitive shells                 I               36
Pure/Cartesian d shells                    I                1
Pure/Cartesian f shells                    I                0
Highest angular momentum                   I                1
Largest degree of contraction              I                3
Shell types                                I   N=          20
           0          -1          -1           0          -1          -1
           0          -1          -1           0          -1          -1
           0           0           0           0           0           0
           0           0
Number of primitives per shell             I   N=          20
           3           2           1           3           2           1
           3           2           1           3           2           1
           2           1           2           1           2           1
           2           1
Shell to atom map                          I   N=          20
           1           1           1           2           2           2
           3           3           3           4           4           4
           5           5           6           6           7           7
           8           8
Primitive exponents                        R   N=          36
  1.72256000E+02  2.59109000E+01  5.53335000E+00  3.66498000E+00  7.70545000E-01
  1.95857000E-01  1.72256000E+02  2.59109000E+01  5.53335000E+00  3.66498000E+00
  7.70545000E-01  1.95857000E-01  1.72256000E+02  2.59109000E+01  5.53335000E+00
  3.66498000E+00  7.70545000E-01  1.95857000E-01  1.72256000E+02  2.59109000E+01
  5.53335000E+00  3.66498000E+00  7.70545000E-01  1.95857000E-01  5.44717800E+00
  8.24547240E-01  1.83191580E-01  5.44717800E+00  8.24547240E-01  1.83191580E-01
  5.44717800E+00  8.24547240E-01  1.83191580E-01  5.44717800E+00  8.24547240E-01
  1.83191580E-01
Contraction coefficients                   R   N=          36
  6.17669074E-02  3.58794043E-01  7.00713084E-01 -3.95895162E-01  1.21583436E+00
  1.00000000E+00  6.17669074E-02  3.58794043E-01  7.00713084E-01 -3.95895162E-01
  1.21583436E+00  1.00000000E+00  6.17669074E-02  3.58794043E-01  7.00713084E-01
 -3.95895162E-01  1.21583436E+00  1.00000000E+00  6.17669074E-02  3.58794043E-01
  7.00713084E-01 -3.95895162E-01  1.21583436E+00  1.00000000E+00  1.56284979E-01
  9.04690877E-01  1.00000000E+00  1.56284979E-01  9.04690877E-01  1.00000000E+00
  1.56284979E-01  9.04690877E-01  1.00000000E+00  1.56284979E-01  9.04690877E-01
  1.00000000E+00
P(S=P) Contraction coefficients            R   N=          36
  0.00000000E+00  0.00000000E+00  0.00000000E+00  2.36459947E-01  8.60618806E-01
  1.00000000E+00  0.00000000E+00  0.00000000E+00  0.00000000E+00  2.36459947E-01
  8.60618806E-01  1.00000000E+00  0.00000000E+00  0.00000000E+00  0.00000000E+00
  2.36459947E-01  8.60618806E-01  1.00000000E+00  0.00000000E+00  0.00000000E+00
  0.00000000E+00  2.36459947E-01  8.60618806E-01  1.00000000E+00  0.00000000E+00
  0.00000000E+00  0.00000000E+00  0.00000000E+00  0.00000000E+00  0.00000000E+00
  0.00000000E+00  0.00000000E+00  0.00000000E+00  0.00000000E+00  0.00000000E+00
  0.00000000E+00
Coordinates of each shell                  R   N=          60
  0.00000000E+00  0.00000000E+00  3.70376495E+00  0.00000000E+00  0.00000000E+00
  3.70376495E+00  0.00000000E+00  0.00000000E+00  3.70376495E+00  0.00000000E+00
  0.00000000E+00  1.19232837E+00  0.00000000E+00  0.00000000E+00  1.19232837E+00
  0.00000000E+00  0.00000000E+00  1.19232837E+00  1.46018113E-16  0.00000000E+00
 -1.19232837E+00  1.46018113E-16  0.00000000E+00 -1.19232837E+00  1.46018113E-16
  0.00000000E+00 -1.19232837E+00  4.53580390E-16  0.00000000E+00 -3.70376495E+00
  4.53580390E-16  0.00000000E+00 -3.70376495E+00  4.53580390E-16  0.00000000E+00
 -3.70376495E+00  0.00000000E+00  1.73447757E+00 -4.75395002E+00  0.00000000E+00
  1.73447757E+00 -4.75395002E+00 -2.12412241E-16 -1.73447757E+00 -4.75395002E+00
 -2.12412241E-16 -1.73447757E+00 -4.75395002E+00 -5.82190967E-16  1.73447757E+00
  4.75395002E+00 -5.82190967E-16  1.73447757E+00  4.75395002E+00 -2.12412241E-16
 -1.73447757E+00  4.75395002E+00 -2.12412241E-16 -1.73447757E+00  4.75395002E+00
Constraint Structure                       R   N=          24
  0.00000000E+00  0.00000000E+00  3.70376495E+00  0.00000000E+00  0.00000000E+00
  1.19232837E+00  1.46018113E-16  0.00000000E+00 -1.19232837E+00  4.53580390E-16
  0.00000000E+00 -3.70376495E+00  0.00000000E+00  1.73447757E+00 -4.75395002E+00
 -2.12412241E-16 -1.73447757E+00 -4.75395002E+00 -5.82190967E-16  1.73447757E+00
  4.75395002E+00 -2.12412241E-16 -1.73447757E+00  4.75395002E+00
Num ILSW                                   I              100
ILSW                                       I   N=         100
           0           1           0           0           0           0
           0           0           0           0           0          -1
           0           0           0           0           2           0
           0           0           0           3           1           0
           1           0           0           0           0           0
           0           0      100000           0          -1           0
           0           0           0           0           0           0
           0           0           0           1           0           0
           0           0           1           0           0         606
           0           0           4          41           0           0
           0           0           0           0           0           0
           0           0           0           8           0           0
           0           0           0           0           0           0
           0           0           0           0           0           0
           0           0           0           0           0           0
           0           0           0           0           0           0
           0           0           0           0
Num RLSW                                   I               41
RLSW                                       R   N=          41
  1.00000000E+00  1.00000000E+00  1.00000000E+00  1.00000000E+00  1.00000000E+00
  0.00000000E+00  0.00000000E+00  1.00000000E+00  0.00000000E+00  0.00000000E+00
  0.00000000E+00  0.00000000E+00  1.00000000E+00  0.00000000E+00  0.00000000E+00
  0.00000000E+00  0.00000000E+00  1.00000000E+00  0.00000000E+00  0.00000000E+00
  0.00000000E+00  0.00000000E+00  1.00000000E+00  0.00000000E+00  0.00000000E+00
  0.00000000E+00  0.00000000E+00  1.00000000E+00  0.00000000E+00  0.00000000E+00
  0.00000000E+00  0.00000000E+00  1.00000000E+00  0.00000000E+00  0.00000000E+00
  0.00000000E+00  0.00000000E+00  0.00000000E+00  1.00000000E+00  1.00000000E+00
  0.00000000E+00
Number of CAS Electrons                    I                6
Number of CAS Orbitals                     I                6
MxBond                                     I                3
NBond                                      I   N=           8
           3           2           2           3           1           1
           1           1
IBond                                      I   N=          24
           2           7           8           1           3           0
           2           4           0           3           5           6
           4           0           0           4           0           0
           1           0           0           1           0           0
RBond                                      R   N=          24
  2.00000000E+00  1.00000000E+00  1.00000000E+00  2.00000000E+00  2.00000000E+00
  0.00000000E+00  2.00000000E+00  2.00000000E+00  0.00000000E+00  2.00000000E+00
  1.00000000E+00  1.00000000E+00  1.00000000E+00  0.00000000E+00  0.00000000E+00
  1.00000000E+00  0.00000000E+00  0.00000000E+00  1.00000000E+00  0.00000000E+00
  0.00000000E+00  1.00000000E+00  0.00000000E+00  0.00000000E+00
Virial Ratio                               R      0.000000000000000E+00
SCF Energy                                 R     -1.529326464718884E+02
Total Energy                               R     -1.529326464718884E+02
RMS Force                                  R      2.193370104753328E-05
External E-field                           R   N=          35
  0.00000000E+00  0.00000000E+00  0.00000000E+00  0.00000000E+00  0.00000000E+00
  0.00000000E+00  0.00000000E+00  0.00000000E+00  0.00000000E+00  0.00000000E+00
  0.00000000E+00  0.00000000E+00  0.00000000E+00  0.00000000E+00  0.00000000E+00
  0.00000000E+00  0.00000000E+00  0.00000000E+00  0.00000000E+00  0.00000000E+00
  0.00000000E+00  0.00000000E+00  0.00000000E+00  0.00000000E+00  0.00000000E+00
  0.00000000E+00  0.00000000E+00  0.00000000E+00  0.00000000E+00  0.00000000E+00
  0.00000000E+00  0.00000000E+00  0.00000000E+00  0.00000000E+00  0.00000000E+00
IOpCl                                      I                0
IROHF                                      I                3
Alpha Orbital Energies                     R   N=          44
  0.00000000E+00  0.00000000E+00  0.00000000E+00  0.00000000E+00  0.00000000E+00
  0.00000000E+00  0.00000000E+00  0.00000000E+00  0.00000000E+00  0.00000000E+00
  0.00000000E+00  0.00000000E+00  0.00000000E+00  0.00000000E+00  0.00000000E+00
  0.00000000E+00  0.00000000E+00  0.00000000E+00  0.00000000E+00  0.00000000E+00
  0.00000000E+00  0.00000000E+00  0.00000000E+00  0.00000000E+00  0.00000000E+00
  0.00000000E+00  0.00000000E+00  0.00000000E+00  0.00000000E+00  0.00000000E+00
  0.00000000E+00  0.00000000E+00  0.00000000E+00  0.00000000E+00  0.00000000E+00
  0.00000000E+00  0.00000000E+00  0.00000000E+00  0.00000000E+00  0.00000000E+00
  0.00000000E+00  0.00000000E+00  0.00000000E+00  0.00000000E+00
Alpha MO coefficients                      R   N=        1936
  6.97738457E-01  6.83931467E-02  1.46008223E-17  6.26274568E-16 -7.45887253E-04
 -4.49001188E-02 -3.07519495E-18 -3.78401952E-15  4.09504859E-03 -3.47912216E-03
 -3.60160554E-03 -5.59073018E-18 -9.93729192E-17 -2.23923155E-03  2.56798021E-02
  2.14264167E-17  1.43858459E-15 -4.72634681E-05  3.47912217E-03  3.60160555E-03
 -9.63150795E-18  8.55996822E-17 -2.23923155E-03 -2.56798021E-02 -4.88496422E-17
 -8.37017110E-16 -4.72634517E-05 -6.97738457E-01 -6.83931468E-02 -5.18184652E-17
 -6.01128085E-17 -7.45887253E-04  4.49001188E-02  6.31408622E-18  5.69029241E-16
  4.09504860E-03  1.11719052E-03 -8.91676817E-03  1.11719052E-03 -8.91676817E-03
 -1.11719052E-03  8.91676816E-03 -1.11719052E-03  8.91676816E-03  6.97602176E-01
  6.86443367E-02  1.42277955E-17  6.10022215E-16 -4.71804877E-05 -5.76312075E-02
  1.06792224E-17 -3.68440157E-15  9.83275776E-03 -1.82069168E-02 -4.28098174E-03
  1.71340860E-17 -9.83164043E-17 -2.44340202E-03  2.76468554E-02 -8.99790343E-18
  1.46660512E-15  1.80321923E-02 -1.82069168E-02 -4.28098174E-03  1.46983759E-17
  9.64419634E-17  2.44340202E-03  2.76468554E-02  5.19400365E-17 -9.80094888E-16
 -1.80321923E-02  6.97602176E-01  6.86443366E-02  5.22740388E-17 -1.41943494E-16
  4.71804870E-05 -5.76312075E-02 -5.89881997E-18  1.03455535E-15 -9.83275776E-03
 -8.33696987E-04  8.71148761E-03 -8.33696987E-04  8.71148761E-03 -8.33696988E-04
  8.71148761E-03 -8.33696988E-04  8.71148761E-03  3.01813688E-03 -2.50915489E-03
 -4.68061417E-18  2.34309801E-16  2.88517007E-03 -1.33445470E-02 -4.87220519E-18
 -1.40267810E-15  1.31584696E-03  6.97932720E-01  7.14854533E-02 -1.90681969E-17
 -3.72795726E-17 -4.54240972E-03 -1.01136800E-01 -1.02871358E-18  5.29212691E-16
  6.16012939E-02 -6.97932720E-01 -7.14854533E-02 -8.36264993E-18  3.00882703E-17
 -4.54240972E-03  1.01136800E-01 -3.12373699E-17 -3.17845220E-16  6.16012939E-02
 -3.01813688E-03  2.50915489E-03 -1.04722018E-17 -3.07917609E-17  2.88517007E-03
  1.33445470E-02  1.38714971E-17  2.65905212E-16  1.31584696E-03  4.34568087E-04
 -1.43084675E-03  4.34568087E-04 -1.43084675E-03 -4.34568087E-04  1.43084675E-03
 -4.34568087E-04  1.43084675E-03  1.80868236E-02 -8.37655193E-04 -2.26327872E-18
  2.51397024E-16  2.52219425E-03  1.43235195E-02 -1.36272819E-17 -1.49388447E-15
 -9.98097996E-03  6.96924650E-01  6.24903235E-02 -1.24180766E-17 -3.96838751E-17
  2.68363347E-03 -3.22129691E-02  1.99904273E-17  5.66941957E-16 -1.10180630E-02
  6.96924650E-01  6.24903235E-02  7.74608700E-18  3.67182108E-17 -2.68363347E-03
 -3.22129691E-02 -8.53359179E-18 -3.49954270E-16  1.10180630E-02  1.80868236E-02
 -8.37655193E-04  9.01385147E-18 -3.33623156E-17 -2.52219425E-03  1.43235195E-02
 -4.37459081E-19  2.97832010E-16  9.98097996E-03 -8.15139254E-04  2.12246039E-03
 -8.15139254E-04  2.12246039E-03 -8.15139254E-04  2.12246039E-03 -8.15139254E-04
  2.12246039E-03 -9.43634026E-02  1.04205674E-01 -4.12065360E-17 -6.30940608E-16
 -7.32279505E-02  2.17511831E-01 -7.48553233E-18  5.91890709E-15 -1.33009818E-02
 -1.52216212E-01  1.82645719E-01  2.97419985E-16  2.08068614E-16 -3.91834947E-02
  2.64272660E-01 -1.64597875E-16 -2.32752367E-15 -1.27397893E-02 -1.52216212E-01
  1.82645719E-01  1.07212312E-15 -8.08439850E-17  3.91834947E-02  2.64272660E-01
  8.76934190E-16  1.86605211E-15  1.27397893E-02 -9.43634026E-02  1.04205674E-01
  1.14562328E-15  1.62706269E-16  7.32279505E-02  2.17511831E-01  1.73882281E-15
 -3.30579877E-15  1.33009818E-02  4.21459845E-02 -2.88994355E-03  4.21459845E-02
 -2.88994355E-03  4.21459845E-02 -2.88994355E-03  4.21459845E-02 -2.88994355E-03
 -1.38956161E-01  1.53662543E-01  2.43411011E-16 -7.47019236E-16 -6.59509641E-02
  2.62314356E-01  5.73235017E-16  5.99551789E-15  2.20982810E-02 -8.24781623E-02
  9.86101781E-02 -3.33643154E-16 -1.71594490E-17  1.38742054E-01  5.49328981E-02
 -6.20665512E-16 -1.56469407E-15  1.80860285E-01  8.24781623E-02 -9.86101781E-02
 -1.44820310E-15  2.73946486E-17  1.38742054E-01 -5.49328981E-02 -2.53359693E-16
 -6.68403422E-17  1.80860285E-01  1.38956161E-01 -1.53662543E-01 -1.59263972E-15
 -2.02831580E-16 -6.59509641E-02 -2.62314356E-01 -2.65916599E-15  3.22451706E-15
  2.20982810E-02 -7.47023130E-02 -5.96123770E-03 -7.47023130E-02 -5.96123770E-03
  7.47023130E-02  5.96123770E-03  7.47023130E-02  5.96123770E-03 -1.12456673E-01
  1.19929712E-01  3.77367144E-16 -7.89942474E-16  1.70156027E-02  3.04286764E-01
 -7.44488582E-18  4.33968077E-15  1.14665839E-02  8.01860807E-02 -9.39142887E-02
  4.61278899E-16 -5.68120821E-17  2.57836292E-01 -1.78576651E-01  1.41884420E-15
 -2.10452343E-15  8.46527163E-02  8.01860807E-02 -9.39142887E-02  9.38849063E-16
 -2.89629840E-16 -2.57836292E-01 -1.78576651E-01 -5.79459200E-16  1.78252563E-15
 -8.46527163E-02 -1.12456673E-01  1.19929712E-01  1.09182092E-15  1.75990690E-17
 -1.70156027E-02  3.04286764E-01  1.79460113E-15 -4.65189722E-15 -1.14665839E-02
  8.25026394E-02  2.69695510E-02  8.25026394E-02  2.69695510E-02  8.25026394E-02
  2.69695510E-02  8.25026394E-02  2.69695510E-02 -4.35480128E-02  3.49632606E-02
  7.26122665E-16 -2.03645839E-15  2.59674435E-01  2.76957498E-01  1.03791236E-15
 -4.41457249E-15  9.80185077E-02  8.29086022E-02 -9.73753216E-02  6.44648219E-16
 -6.97244532E-16 -1.32336318E-01 -1.26033125E-01  5.71411664E-16  2.05507528E-15
 -2.43372689E-01 -8.29086022E-02  9.73753216E-02  3.35931986E-16  3.07882107E-16
 -1.32336318E-01  1.26033125E-01 -1.46055790E-18 -2.61697525E-15 -2.43372689E-01
  4.35480128E-02 -3.49632606E-02 -5.14000095E-16  7.37677973E-16  2.59674435E-01
 -2.76957498E-01 -3.30497581E-16  8.06526720E-15  9.80185077E-02 -1.17796997E-01
 -8.65716297E-02 -1.17796997E-01 -8.65716297E-02  1.17796997E-01  8.65716297E-02
  1.17796997E-01  8.65716297E-02 -1.78130732E-02  7.89018594E-03  4.56915330E-16
 -3.60753470E-15  2.71155782E-01  1.48770913E-01  8.56246149E-16 -3.91548918E-15
  1.34482262E-01  2.07446768E-02 -2.41398143E-02  3.80969213E-16 -3.27371923E-16
 -2.68796305E-01 -1.23525876E-01 -1.17063854E-16  3.50146487E-16 -1.76932502E-01
  2.07446768E-02 -2.41398143E-02 -2.23762752E-16  2.02891997E-16  2.68796305E-01
 -1.23525876E-01  4.64072036E-16  1.68257675E-15  1.76932502E-01 -1.78130732E-02
  7.89018594E-03  1.84193846E-16 -8.37680933E-16 -2.71155782E-01  1.48770913E-01
 -2.03906679E-16 -6.34493627E-15 -1.34482262E-01  1.04836525E-01  8.43075604E-02
  1.04836525E-01  8.43075604E-02  1.04836525E-01  8.43075604E-02  1.04836525E-01
  8.43075604E-02 -2.59121119E-16  4.58252161E-15  1.94311989E-15  2.72768649E-01
  3.86376345E-15 -3.89442849E-14  2.85179328E-15  2.25092706E-01  2.34129261E-14
  1.06065698E-16 -7.78675649E-16  5.19854705E-15  2.46614109E-02 -3.12394041E-15
 -6.80136652E-15  4.35348995E-15 -2.90287548E-02  5.10794803E-14 -3.04314338E-17
 -4.53164319E-16  3.74690546E-15  2.46614109E-02  1.89525786E-15  3.27851521E-14
  2.71970898E-15 -2.90287548E-02  3.22822794E-14 -2.84662088E-16  6.07841627E-16
  1.51176700E-15  2.72768649E-01 -1.34993418E-15  1.19631898E-14  2.58355101E-15
  2.25092706E-01  4.55735513E-15  1.62900514E-01  1.31630075E-01 -1.62900514E-01
 -1.31630075E-01  1.62900514E-01  1.31630075E-01 -1.62900514E-01 -1.31630075E-01
 -1.64367159E-16  4.70512019E-15 -1.57815405E-15  2.71738405E-01  4.41083967E-15
 -5.45003868E-14 -1.27982773E-15  2.38600265E-01  3.10557826E-14  4.69987523E-16
 -3.49779832E-16 -4.57323349E-15  5.24480398E-02 -3.36835076E-15 -3.01426203E-14
 -3.85290341E-15 -7.22084361E-04  8.32648567E-14 -6.43966263E-16 -8.51431839E-16
 -4.27661595E-15 -5.24480398E-02 -1.94914395E-16  5.48984678E-14 -4.15906439E-15
  7.22084361E-04  6.56208974E-14  1.35381462E-16 -1.28487242E-15 -3.14040533E-15
 -2.71738405E-01  1.10346498E-15  3.24892200E-14 -2.56370997E-15 -2.38600265E-01
  1.38725201E-14 -1.56207008E-01 -1.12802401E-01  1.56207008E-01  1.12802401E-01
  1.56207008E-01  1.12802401E-01 -1.56207008E-01 -1.12802401E-01 -1.94898023E-16
 -2.46498635E-15  1.77870103E-01  9.16149569E-15 -3.97599982E-15  1.25395925E-13
  1.69181674E-01  5.45900202E-14 -6.49553389E-14 -1.45764888E-15 -4.16271796E-15
  2.94281444E-01 -4.16845103E-13  3.53516196E-15  1.86824415E-13  2.53655760E-01
 -4.12809289E-13 -2.59706595E-13  1.25413122E-15  2.65787409E-15  2.94281444E-01
 -4.49078225E-13  5.43692568E-15 -1.50114975E-13  2.53655760E-01 -4.50624371E-13
 -2.88241677E-13  2.59799771E-15  4.52959885E-15  1.77870103E-01  2.83857458E-15
 -3.83206408E-15 -1.73306302E-13  1.69181674E-01  5.74130841E-14 -8.29311219E-14
  5.15535772E-14  7.99483056E-14 -4.90608905E-14 -8.07918255E-14  4.84525633E-14
  8.72461987E-14 -5.27323984E-14 -7.46279860E-14 -1.53477235E-16 -1.64810678E-15
  1.87514247E-13 -8.00687391E-03 -4.26554889E-16  2.17033109E-14  1.75606742E-13
 -4.83896190E-02 -1.17216308E-14  1.52330658E-16 -2.41584047E-16  3.08676920E-13
  3.56093564E-01  4.82968322E-16  1.16720218E-14  2.43327868E-13  3.56246199E-01
 -3.25495207E-14  6.50104707E-17  1.58167984E-16  3.86681314E-13  3.56093564E-01
  3.80949197E-17 -1.81415389E-14  3.47150062E-13  3.56246199E-01 -2.81171155E-14
  1.98421563E-17  4.83131576E-16  2.76270612E-13 -8.00687391E-03 -3.42623805E-16
 -1.35105593E-14  2.73826814E-13 -4.83896190E-02 -8.14569584E-15 -4.36623388E-02
 -6.82522093E-02  4.36623388E-02  6.82522093E-02 -4.36623388E-02 -6.82522093E-02
  4.36623388E-02  6.82522093E-02  9.10213764E-16  1.07102165E-15  2.93623772E-01
 -2.45721549E-15  5.91043890E-16 -6.09064082E-14  3.40817323E-01 -1.33247974E-14
  1.89291151E-14  2.31308335E-16  2.35515048E-15  1.81325345E-01  6.77298601E-14
 -8.63485099E-16 -9.27061958E-14  2.15010061E-01  7.04418028E-14  1.09979176E-13
 -1.94693041E-16 -3.72608625E-16 -1.81325345E-01  5.50702968E-14 -2.60744687E-15
  4.97845931E-14 -2.15010061E-01  5.00749555E-14  1.42751082E-13 -2.59559890E-15
 -3.00484583E-15 -2.93623772E-01 -1.68406256E-15  1.62951583E-15  1.04396827E-13
 -3.40817323E-01 -1.18218228E-14  4.56746005E-14 -5.82769966E-15 -1.04220035E-14
  5.77833028E-15 -4.04319240E-18 -9.14211059E-15 -5.57533286E-15  9.21026397E-15
  1.59566043E-14  6.25550877E-16  1.11235272E-15  3.73045736E-01  6.95665705E-15
 -5.18900670E-16 -3.73168634E-14  4.10614885E-01  2.86792332E-14  1.06212057E-14
  6.59180076E-16  6.88555173E-16 -2.39659400E-01 -1.38193472E-13 -3.33670576E-16
 -3.07299111E-14 -2.53434011E-01 -1.46920295E-13  5.45572749E-14 -1.11802812E-15
 -7.94219226E-16 -2.39659400E-01  9.66518562E-14 -1.45984489E-15  5.22345697E-14
 -2.53434011E-01  1.17937116E-13  3.81909084E-14  1.81348336E-15 -3.26457281E-16
  3.73045736E-01 -4.71212245E-15  2.22551279E-16 -5.05656757E-15  4.10614885E-01
 -3.42520231E-15  5.76505145E-15 -1.58289474E-14 -2.12854535E-14  1.60908705E-14
  3.96956144E-14  1.58980842E-14  2.71630473E-14 -1.50567948E-14 -1.76045328E-14
 -6.78460997E-17 -1.87923614E-15  2.71791834E-14 -3.18032617E-02 -7.16569496E-16
  2.55495418E-14  7.52553394E-15 -1.20161887E-01 -1.46583401E-14  1.19570662E-16
 -4.21121932E-16  2.74208231E-14  5.37050870E-01  1.07791331E-15  1.15300839E-14
  5.69812657E-14  5.14780838E-01 -3.98516261E-14  1.40380281E-16  1.15810104E-15
 -1.58110653E-13 -5.37050870E-01  5.39710937E-16 -2.83532209E-14 -1.89626142E-13
 -5.14780838E-01 -2.75376761E-14  1.13159352E-16  2.93887035E-16  1.49888176E-13
  3.18032617E-02 -3.36377419E-16 -1.38850218E-14  1.62261558E-13  1.20161887E-01
 -3.19468412E-15  5.76514228E-02  6.15693148E-02 -5.76514228E-02 -6.15693148E-02
 -5.76514228E-02 -6.15693148E-02  5.76514228E-02  6.15693148E-02 -2.65432578E-16
 -1.18155223E-17 -2.76211051E-01  3.70891367E-15  1.04350724E-15  6.16654276E-15
 -3.25135896E-01  2.13054931E-14  1.55316338E-15 -2.85605636E-17 -2.30066711E-16
  4.89146843E-01 -8.56037977E-14  1.07909601E-15  7.15500032E-15  5.47323065E-01
 -1.16035365E-13 -5.53470015E-15 -6.78945314E-16  8.75091601E-16 -4.89146843E-01
  1.24609913E-13 -2.50802852E-15  5.38588850E-15 -5.47323065E-01  1.07215924E-13
 -1.16793986E-14  1.63116673E-15 -3.41589102E-16  2.76211051E-01 -7.93617072E-15
 -4.38330847E-16 -2.38366489E-14  3.25135896E-01 -8.25253318E-15 -4.28975820E-15
 -1.61525809E-14 -1.69169638E-14  1.83091736E-14  3.07085022E-14  1.41638836E-14
  1.22360090E-14 -1.44297072E-14 -1.89018990E-14 -1.09725033E-01  5.75145157E-02
  3.24917124E-15  4.10487619E-14  7.72511247E-02  1.29743321E+00  2.50158796E-15
  2.77540519E-13  5.39294002E-01  3.54980002E-02 -1.24437994E-02 -4.68981265E-16
 -3.44415424E-15  1.16613093E-02 -3.87947374E-01 -1.74528720E-15 -5.70747719E-14
  2.38632669E-01 -3.54980002E-02  1.24437994E-02  1.91851834E-15 -2.45303911E-15
  1.16613093E-02  3.87947374E-01  3.44587893E-15 -6.94957424E-14  2.38632669E-01
  1.09725033E-01 -5.75145157E-02 -5.47363829E-15  4.57569813E-14  7.72511247E-02
 -1.29743321E+00 -4.93571560E-15  3.08251317E-13  5.39294002E-01  2.18882070E-02
  9.71722141E-01  2.18882070E-02  9.71722141E-01 -2.18882070E-02 -9.71722141E-01
 -2.18882070E-02 -9.71722141E-01 -1.02374546E-01  4.45481395E-02  2.96389188E-15
  2.63567774E-14  1.08427905E-01  1.33325801E+00  1.86030893E-15  2.54545084E-13
  5.85684124E-01  4.04250787E-03  2.56698072E-02  4.21584007E-16 -5.76552768E-15
 -5.62089001E-02  5.03336000E-02  4.80225985E-16 -1.24342651E-13  1.39572453E-02
  4.04250787E-03  2.56698072E-02 -1.13360078E-15  4.81874631E-15  5.62089001E-02
  5.03336000E-02 -3.02607480E-15  1.35504845E-13 -1.39572454E-02 -1.02374546E-01
  4.45481395E-02  5.12059297E-15 -3.66617578E-14 -1.08427905E-01  1.33325801E+00
  4.46414007E-15 -3.10948272E-13 -5.85684124E-01 -2.21562694E-02 -9.93570619E-01
 -2.21562694E-02 -9.93570619E-01 -2.21562694E-02 -9.93570619E-01 -2.21562694E-02
 -9.93570619E-01 -1.87385525E-14  3.47365351E-14  9.45004341E-16 -2.43423369E-01
  1.73724026E-14  4.39815524E-14  1.10665121E-15 -1.15036736E+00  2.66478736E-13
  1.89355088E-15 -2.89546136E-15 -2.41479102E-15  2.08425091E-02  1.40814693E-14
 -3.87363796E-14 -1.53839936E-16  2.46440673E-01  2.95583151E-13 -5.31797917E-15
  3.09089078E-15 -1.12091762E-15  2.08425091E-02  4.71693232E-16  1.43563690E-13
 -2.04271983E-15  2.46440673E-01  2.30158062E-13  2.74175775E-14 -4.66116098E-14
  3.26931925E-15 -2.43423369E-01  3.28908615E-14 -1.80790078E-13  4.23083462E-15
 -1.15036736E+00  2.08055587E-13 -5.45249519E-05  1.16472594E+00  5.45249519E-05
 -1.16472594E+00 -5.45249519E-05  1.16472594E+00  5.45249519E-05 -1.16472594E+00
  7.54776472E-02 -1.72408601E-02  1.33220018E-15  1.70155220E-14  1.80257653E-01
 -2.34388886E+00 -6.28272836E-16  6.06522360E-14  2.07571392E+00 -1.35152942E-01
  9.96612649E-02  1.21033087E-15  7.44917690E-16 -4.63951584E-02  6.38073659E-01
  2.41902241E-15 -1.70333219E-14  3.04894554E+00  1.35152942E-01 -9.96612649E-02
  4.25054756E-15  5.51712193E-16 -4.63951584E-02 -6.38073659E-01 -4.79078566E-15
 -1.50082020E-15  3.04894554E+00 -7.54776472E-02  1.72408601E-02  3.81499824E-15
  4.91934681E-15  1.80257653E-01  2.34388886E+00  5.53346654E-15  1.91539497E-14
  2.07571392E+00  3.23010521E-02  3.21750787E-01  3.23010521E-02  3.21750787E-01
 -3.23010521E-02 -3.21750787E-01 -3.23010521E-02 -3.21750787E-01  1.06658358E-14
 -2.91108384E-14  1.75627899E-16  2.50226724E-01 -2.57274045E-14 -1.19302975E-13
  2.33538699E-15  1.25515647E+00 -2.48655500E-13  1.26667616E-14  4.19334129E-15
 -9.18965143E-16 -6.10327068E-02 -2.19374325E-15 -6.21724906E-13  2.95092372E-15
 -5.25715064E-01  1.42982641E-13 -2.83761331E-15 -1.07911308E-15 -3.77824538E-15
  6.10327068E-02 -2.64922924E-15 -8.75788303E-15 -9.77510200E-15  5.25715064E-01
  5.63951236E-13  1.59164070E-14 -5.63401543E-14  4.66586680E-15 -2.50226724E-01
  2.87003962E-14  1.90527574E-13  1.01969899E-14 -1.25515647E+00  3.71691231E-13
 -2.30062028E-02  1.22918946E+00  2.30062028E-02 -1.22918946E+00  2.30062028E-02
 -1.22918946E+00 -2.30062028E-02  1.22918946E+00  8.39432135E-02  2.70756865E-02
  4.06036143E-16  3.62873831E-14  2.04360243E-02 -2.19498921E+00  1.95016306E-15
  8.01604135E-14  2.14475801E+00 -6.52631549E-02 -5.51363435E-02 -8.36279948E-16
 -4.25303827E-15  2.70484483E-01  2.87619034E+00 -3.36486487E-15 -2.99665464E-14
  1.75183732E+00 -6.52631549E-02 -5.51363435E-02 -2.46869046E-15  6.19989539E-15
 -2.70484483E-01  2.87619034E+00  5.43213031E-15  2.60253290E-14 -1.75183732E+00