
 Primary working directories    : /tmp/grichings
 Secondary working directories  : /tmp/grichings
 Wavefunction directory         : /home/grichings/wfu/
 Main file repository           : /tmp/grichings/

 ARCHNAME  : Linux/x86_64
 FC        : /usr/bin/gfortran
 FCVERSION : 4.4.6
 BLASLIB   : 
 id        : gwbham

 Nodes               nprocs
 che-hydra.bham.ac.uk    1
 ga_uses_ma=false, calling ma_init with nominal heap.
 GA-space will be limited to   8.0 MW (determined by -G option)

 MPP tuning parameters: Latency=     0 Microseconds,   Broadcast speed=    0 MB/sec
 default implementation of scratch files=df  

 ***,opt
 nosym
 geomtyp=xyz
 geometry={
 3
 water geometry
 o,  0.0000000 ,  0.000000 ,   0.121276
 h,  0.0000000 ,  0.756160 ,  -0.485103
 h,  0.0000000 , -0.756160 ,  -0.485103
 }
 basis=6-31G**
 {hf,energy=1.0d-8;wf,10,1,0;                                                    !RHF calculation for sigma state
 orbital,2100.2}                                                                 !save orbitals to record 2100.2 (default)
  
 {multi,energy=1.0d-8;occ,9;                                                     !Define active and inactive orbitals
 closed,1;
 start,2100.2;                                                                   !Start with RHF orbitals from above
 wf,10,1,0;
 state,1;
 rotate,8.1,10.1,90;
 orbital,2141.2;
 orbprint,100}                                                                   !Print orbitals
  
 optg,gradient=1.0d-8,energy=1.0d-8
 frequencies
 put,xyz,water-opt-nosym.dat
 {matrop
 load,oldorbitals,orb,2141.2
 write,oldorbitals,orbitalfile.orb}

 Variables initialized (632), CPU time= 0.01 sec
 Commands  initialized (426), CPU time= 0.01 sec, 469 directives.
 Default parameters read. Elapsed time= 0.08 sec
 Checking input...
 Passed
1


                                         ***  PROGRAM SYSTEM MOLPRO  ***
                         Copyright, University College Cardiff Consultants Limited, 2008

                                    Version 2009.1 linked 14 May 2014 11:56:10


 **********************************************************************************************************************************
 LABEL *   opt                                                                           
 Linux-2.6.32-279.14.1.el6.x86_64/che-hydra.bham.ac.uk(x86_64) 64 bit mpp version        DATE:  22-Jan-16         TIME: 17:04:33  
 **********************************************************************************************************************************

 Patch level:      30
 **********************************************************************************************************************************

 Variable memory set to    8000000 words,  buffer space   230000 words

 SETTING GEOMTYP        =    XYZ
 ZSYMEL=NOSYM

 SETTING BASIS          =    6-31G**


 Recomputing integrals since basis changed


 Using spherical harmonics

 Library entry O      S 6-31G                selected for orbital group  1
 Library entry O      P 6-31G                selected for orbital group  1
 Library entry O      D 6-31G*               selected for orbital group  1
 Library entry H      S 6-31G                selected for orbital group  2
 Library entry H      P 6-31G**              selected for orbital group  2

1PROGRAM * SEWARD (Integral evaluation for generally contracted gaussian basis sets)     Author: Roland Lindh, 1990

 Geometry written to block  1 of record 700


 Point group  C1  



 ATOMIC COORDINATES

 NR  ATOM    CHARGE       X              Y              Z

   1  O       8.00    0.000000000    0.000000000    0.229178426
   2  H       1.00    0.000000000    1.428935312   -0.916711816
   3  H       1.00    0.000000000   -1.428935312   -0.916711816

 Bond lengths in Bohr (Angstrom)

 1-2  1.831644226  1-3  1.831644226
     (0.969264379)     (0.969264379)

 Bond angles

  2-1-3  102.54642941

 NUCLEAR CHARGE:                   10
 NUMBER OF PRIMITIVE AOS:          42
 NUMBER OF SYMMETRY AOS:           41
 NUMBER OF CONTRACTIONS:           24   (  24A   )
 NUMBER OF CORE ORBITALS:           1   (   1A   )
 NUMBER OF VALENCE ORBITALS:        6   (   6A   )


 NUCLEAR REPULSION ENERGY    9.08523172

 EXTRA SYMMETRY OF AOS IN SYMMETRY 1:   1 1 1 2 1 1 2 1 1 1   2 2 1 1 1 1 2 1 1 1   1 2 1 1

 Eigenvalues of metric

         1 0.437E-01 0.694E-01 0.161E+00 0.217E+00 0.346E+00 0.379E+00 0.386E+00 0.420E+00


 Contracted 2-electron integrals neglected if value below      1.0D-11
 AO integral compression algorithm  1   Integral accuracy      1.0D-11

     0.262 MB (compressed) written to integral file ( 76.5%)

     Node minimum: 0.262 MB, node maximum: 0.262 MB


 NUMBER OF SORTED TWO-ELECTRON INTEGRALS:      45150.     BUFFER LENGTH:  32768
 NUMBER OF SEGMENTS:   1  SEGMENT LENGTH:      45150      RECORD LENGTH: 524288

 Memory used in sort:       0.60 MW

 SORT1 READ       59680. AND WROTE       21643. INTEGRALS IN      1 RECORDS. CPU TIME:     0.01 SEC, REAL TIME:     0.01 SEC
 SORT2 READ       21643. AND WROTE       45150. INTEGRALS IN      1 RECORDS. CPU TIME:     0.01 SEC, REAL TIME:     0.01 SEC

 FILE SIZES:   FILE 1:     2.4 MBYTE,  FILE 4:     4.2 MBYTE,   TOTAL:      6.6 MBYTE

 OPERATOR DM      FOR CENTER  0  COORDINATES:    0.000000    0.000000    0.000000


 **********************************************************************************************************************************
 DATASETS  * FILE   NREC   LENGTH (MB)   RECORD NAMES
              1      19        2.39       500      610      700      900      950      970     1000      129      960     1100   
                                          VAR    BASINP    GEOM    SYMINP    ZMAT    AOBASIS   BASIS     P2S    ABASIS      S 
                                         1400     1410     1200     1210     1080     1600     1650     1300     1700   
                                           T        V       H0       H01     AOSYM     SMH    MOLCAS    ERIS     OPER   

 PROGRAMS   *        TOTAL       INT
 CPU TIMES  *         0.35      0.04
 REAL TIME  *         0.96 SEC
 DISK USED  *         7.39 MB      
 **********************************************************************************************************************************

1PROGRAM * RHF-SCF (CLOSED SHELL)       Authors: W. Meyer, H.-J. Werner


 NUMBER OF ELECTRONS:       5+    5-    SPACE SYMMETRY=1    SPIN SYMMETRY=Singlet 
 CONVERGENCE THRESHOLDS:    1.00E-06 (Density)    1.00E-08 (Energy)
 MAX. NUMBER OF ITERATIONS:       60
 INTERPOLATION TYPE:            DIIS
 INTERPOLATION STEPS:              2 (START)      1 (STEP)
 LEVEL SHIFTS:                  0.00 (CLOSED)  0.00 (OPEN) 



 Orbital guess generated from atomic densities. Full valence occupancy:    5

 Molecular orbital dump at record        2100.2

 ITERATION    DDIFF          GRAD             ENERGY        2-EL.EN.            DIPOLE MOMENTS         DIIS
    1      0.000D+00      0.000D+00       -75.98250753     77.646443  -0.000000  -0.000000  -1.222921    0
    2      0.000D+00      0.250D-01       -76.01229086     74.310474   0.000000   0.000000  -0.813444    1
    3      0.192D-01      0.132D-01       -76.02125259     75.682164  -0.000000   0.000000  -0.893536    2
    4      0.738D-02      0.143D-02       -76.02146035     75.577417  -0.000000   0.000000  -0.880667    3
    5      0.967D-03      0.387D-03       -76.02147776     75.588775  -0.000000   0.000000  -0.876251    4
    6      0.369D-03      0.605D-04       -76.02147829     75.589029   0.000000   0.000000  -0.875491    5
    7      0.813D-04      0.853D-05       -76.02147830     75.588973  -0.000000  -0.000000  -0.875375    6
    8      0.126D-04      0.716D-06       -76.02147830     75.588960  -0.000000   0.000000  -0.875373    5
    9      0.662D-06      0.110D-06       -76.02147830     75.588962   0.000000   0.000000  -0.875374    0

 Final occupancy:   5

 !RHF STATE 1.1 Energy                -76.021478303239
 Nuclear energy                         9.08523172
 One-electron energy                 -122.90119115
 Two-electron energy                   37.79448112
 Virial quotient                       -1.00205189
 !RHF STATE 1.1 Dipole moment           0.00000000     0.00000000    -0.87537386
 Dipole moment /Debye                   0.00000000     0.00000000    -2.22483269

 Orbital energies:

         1.1          2.1          3.1          4.1          5.1          6.1          7.1
    -20.560947    -1.335413    -0.692869    -0.570334    -0.496552     0.212667     0.301661


 **********************************************************************************************************************************
 DATASETS  * FILE   NREC   LENGTH (MB)   RECORD NAMES
              1      20        2.40       500      610      700      900      950      970     1000      129      960     1100   
                                          VAR    BASINP    GEOM    SYMINP    ZMAT    AOBASIS   BASIS     P2S    ABASIS      S 
                                         1400     1410     1200     1210     1080     1600     1650     1300     1700      960(1)
                                           T        V       H0       H01     AOSYM     SMH    MOLCAS    ERIS     OPER    ABASIS    

              2       3        0.30       700     1000     2100   
                                         GEOM     BASIS     RHF  

 PROGRAMS   *        TOTAL        HF       INT
 CPU TIMES  *         0.38      0.03      0.04
 REAL TIME  *         1.42 SEC
 DISK USED  *         7.39 MB      
 **********************************************************************************************************************************

1PROGRAM * MULTI (Direct Multiconfiguration SCF)       Authors: P.J. Knowles, H.-J. Werner (1984)     S.T. Elbert (1988)


 Number of closed-shell orbitals:  1 (  1 )
 Number of active  orbitals:       8 (  8 )
 Number of external orbitals:     15 ( 15 )

 State symmetry 1

 Number of electrons:     8    Spin symmetry=Singlet   Space symmetry=1
 Number of states:        1
 Number of CSFs:       1764   (4900 determinants, 4900 intermediate states)

 Molecular orbitals read from record     2100.2  Type=RHF/CANONICAL (state 1.1)
 ROTATION OF ORBITALS   8.1   10.1       90.00 DEGREES

 EXTRA SYMMETRY OF MOS IN SYMMETRY 1:   1 1 1 1 2 1 1 2 1 1   1 1 1 2 1 2 1 1 1 2   2 1 1 1

 Wavefunction dump at record             2141.2

 Convergence thresholds  0.10E-04 (gradient)  0.10E-07 (energy)  0.10E-02 (step length)

 Number of orbital rotations:     143     (   8 Core/Active   15 Core/Virtual   0 Active/Active  120 Active/Virtual)
 Total number of variables:      5043


 ITER. MIC  NCI  NEG     ENERGY(VAR)     ENERGY(PROJ)   ENERGY CHANGE     GRAD(0)  GRAD(ORB)   GRAD(CI)     STEP       TIME

   1   31   26    0     -76.07203974     -76.14137157   -0.06933183    0.05267922 0.00013065 0.00033715  0.12D+01      0.33
   2   19   26    0     -76.14283821     -76.14309584   -0.00025763    0.00647653 0.00000001 0.00000009  0.80D-01      0.69
   3   20   10    0     -76.14309584     -76.14309584   -0.00000000    0.00001274 0.00000017 0.00000055  0.27D-04      0.83

 ** WVFN ****  CONVERGENCE REACHED, FINAL GRADIENT:  0.21D-06

 Gradient information for state 1.1 saved on record      5000.1


 First order charge density matrix for state 1.1 saved on record  2141.2 (density set 1)

 Results for state 1.1
 =====================

 !MCSCF STATE 1.1 Energy              -76.143095836429
 Nuclear energy                         9.08523172
 Kinetic energy                        75.99582926
 One electron energy                 -122.77748034
 Two electron energy                   37.54915278
 Virial ratio                           2.00193782

 !MCSCF STATE 1.1 Dipole moment        -0.00000000     0.00000000    -0.85342050
 Dipole moment /Debye                  -0.00000000     0.00000000    -2.16903649


 NATURAL ORBITALS                                        
 ================                                        

   Orb     Occ        Energy       Coefficients

                                   1 1s      1 1s      1 1s      1 2px     1 2py     1 2pz     1 2px     1 2py     1 2pz     1 3d0  
                                   1 3d2-    1 3d1+    1 3d2+    1 3d1-    2 1s      2 1s      2 2px     2 2py     2 2pz     3 1s   
                                   3 1s      3 2px     3 2py     3 2pz  

   1.1  2.00000   -20.559763     0.996071  0.021148 -0.007238  0.000000  0.000000 -0.003352  0.000000  0.000000  0.000071  0.000103
                                 0.000000  0.000000 -0.000388 -0.000000 -0.000197  0.001483  0.000000  0.000823 -0.000774 -0.000197
                                 0.001483  0.000000 -0.000823 -0.000774

   2.1  1.98886    -1.214065    -0.220700  0.497154  0.529409  0.000000 -0.000000  0.139462  0.000000 -0.000000  0.127701 -0.008679
                                 0.000000 -0.000000 -0.000595  0.000000  0.073557 -0.024201  0.000000 -0.012873  0.014639  0.073557
                                -0.024201  0.000000  0.012873  0.014639

   3.1  1.98116    -0.494647    -0.000000  0.000000  0.000000  0.634042  0.000000 -0.000000  0.505681  0.000000  0.000000 -0.000000
                                 0.000000 -0.028099 -0.000000 -0.000000  0.000000  0.000000  0.020530 -0.000000  0.000000 -0.000000
                                -0.000000  0.020530 -0.000000 -0.000000

   4.1  1.97636    -0.689492     0.020627 -0.038397  0.120023 -0.000000 -0.000000  0.540972 -0.000000  0.000000  0.363555 -0.027176
                                -0.000000  0.000000  0.006010  0.000000 -0.193216 -0.093062 -0.000000  0.021288  0.000196 -0.193216
                                -0.093062 -0.000000 -0.021288  0.000196

   5.1  1.97453    -0.692019    -0.000000  0.000000  0.000000 -0.000000  0.510422 -0.000000 -0.000000  0.266411 -0.000000  0.000000
                                -0.000000  0.000000 -0.000000 -0.034966  0.239252  0.145211 -0.000000 -0.008321  0.016516 -0.239252
                                -0.145211 -0.000000 -0.008321 -0.016516

   6.1  0.02541     0.816350     0.000000  0.000000 -0.000000  0.000000 -0.938075  0.000000 -0.000000  0.174924  0.000000 -0.000000
                                -0.000000  0.000000 -0.000000  0.024776  0.389351  0.265386 -0.000000 -0.014912  0.014935 -0.389351
                                -0.265386 -0.000000 -0.014912 -0.014935

   7.1  0.02409     0.841710     0.073282 -0.349015 -0.221376  0.000000 -0.000000  0.893282 -0.000000 -0.000000 -0.388928  0.032453
                                -0.000000  0.000000  0.014543  0.000000  0.342181  0.187318 -0.000000 -0.026405 -0.009256  0.342181
                                 0.187318 -0.000000  0.026405 -0.009256

   8.1  0.01802     1.171735     0.000000 -0.000000 -0.000000 -0.963498 -0.000000  0.000000  0.997794  0.000000 -0.000000  0.000000
                                 0.000000 -0.065617  0.000000  0.000000  0.000000  0.000000  0.049800 -0.000000  0.000000 -0.000000
                                -0.000000  0.049800 -0.000000 -0.000000

   9.1  0.01157     1.265310     0.112074 -1.326913  1.215788 -0.000000 -0.000000 -0.353487  0.000000  0.000000  0.550858 -0.049641
                                 0.000000 -0.000000 -0.008966 -0.000000  0.151350 -0.078112  0.000000 -0.007727  0.036434  0.151350
                                -0.078112  0.000000  0.007727  0.036434

  10.1 -0.00000     0.682829    -0.018197 -0.538396  1.846912 -0.000000  0.000000  0.184329  0.000000 -0.000000 -0.687757  0.030867
                                -0.000000  0.000000 -0.132873  0.000000  0.348590 -1.267789 -0.000000  0.115628 -0.068330  0.348590
                                -1.267789  0.000000 -0.115628 -0.068330

  11.1 -0.00000     0.736071    -0.000000 -0.000000  0.000000 -0.000000 -0.275932  0.000000  0.000000  1.161277 -0.000000  0.000000
                                 0.000000  0.000000 -0.000000 -0.222022  0.369837 -1.740197  0.000000  0.098013 -0.103812 -0.369837
                                 1.740197 -0.000000  0.098013  0.103812

  12.1 -0.00000     1.089969    -0.000000  0.000000 -0.000000 -0.000000 -0.406172 -0.000000  0.000000  1.517908  0.000000 -0.000000
                                 0.000000  0.000000  0.000000  0.113769 -0.646708 -0.380174  0.000000  0.063926  0.001677  0.646708
                                 0.380174 -0.000000  0.063926 -0.001677

  13.1 -0.00000     1.394124     0.017602  0.831399 -1.865928  0.000000  0.000000 -0.222076 -0.000000 -0.000000  0.996665 -0.066015
                                 0.000000 -0.000000 -0.286520  0.000000  0.690494  0.366948  0.000000  0.065235  0.114654  0.690494
                                 0.366948 -0.000000 -0.065235  0.114654

  14.1 -0.00000     1.791907     0.010587  0.198695 -0.535104 -0.000000  0.000000 -0.120257  0.000000 -0.000000  0.583456  0.674165
                                -0.000000  0.000000  0.016714 -0.000000  0.263585  0.100647 -0.000000 -0.204751 -0.242348  0.263585
                                 0.100647  0.000000  0.204751 -0.242348

  15.1 -0.00000     1.802447     0.000000  0.000000 -0.000000  0.000000 -0.000000 -0.000000 -0.000000  0.000000  0.000000  0.000000
                                 0.676971 -0.000000  0.000000 -0.000000  0.000000  0.000000  0.355469 -0.000000 -0.000000  0.000000
                                 0.000000 -0.355469  0.000000 -0.000000

  16.1 -0.00000     1.905992     0.000000  0.000000 -0.000000 -0.074077 -0.000000  0.000000  0.301240  0.000000  0.000000 -0.000000
                                 0.000000  0.768889  0.000000 -0.000000  0.000000  0.000000 -0.308894 -0.000000  0.000000  0.000000
                                 0.000000 -0.308894  0.000000  0.000000

  17.1 -0.00000     2.555667     0.006692  0.480442 -0.846491 -0.000000  0.000000 -0.203639  0.000000 -0.000000  0.621025 -0.206398
                                -0.000000  0.000000  0.896818 -0.000000  0.657692  0.017958  0.000000  0.169823 -0.153460  0.657692
                                 0.017958 -0.000000 -0.169823 -0.153460

  18.1 -0.00000     2.571803     0.000000 -0.000000  0.000000 -0.000000  0.026998  0.000000  0.000000 -0.446739 -0.000000  0.000000
                                 0.000000  0.000000 -0.000000 -0.173544  0.071651  0.105115  0.000000  0.465698  0.590913 -0.071651
                                -0.105115 -0.000000  0.465698 -0.590913

  19.1 -0.00000     2.772390     0.000000 -0.000000  0.000000 -0.000000  0.318607  0.000000  0.000000 -0.451826 -0.000000  0.000000
                                 0.000000  0.000000 -0.000000  0.755356  0.528005 -0.201891  0.000000  0.372738 -0.217696 -0.528005
                                 0.201891 -0.000000  0.372738  0.217696

  20.1 -0.00000     2.950278     0.000000  0.000000 -0.000000 -0.000000 -0.000000 -0.000000  0.000000 -0.000000  0.000000 -0.000000
                                 0.877538 -0.000000  0.000000 -0.000000  0.000000  0.000000 -0.703405  0.000000 -0.000000  0.000000
                                 0.000000  0.703405 -0.000000 -0.000000

  21.1 -0.00000     2.983724     0.000000  0.000000 -0.000000  0.014865 -0.000000  0.000000 -0.439966  0.000000  0.000000 -0.000000
                                 0.000000  0.750051  0.000000 -0.000000  0.000000  0.000000  0.757366 -0.000000  0.000000  0.000000
                                 0.000000  0.757366  0.000000  0.000000

  22.1 -0.00000     3.345028     0.003034 -0.133371  0.159250 -0.000000 -0.000000  0.073084  0.000000  0.000000 -0.444098  0.890296
                                 0.000000  0.000000  0.446307 -0.000000 -0.068228 -0.036863  0.000000  0.418293  0.689114 -0.068228
                                -0.036863 -0.000000 -0.418293  0.689114

  23.1 -0.00000     3.638241    -0.092932 -0.059382  2.058824 -0.000000  0.000000 -0.457251  0.000000  0.000000 -0.951026  0.265046
                                 0.000000  0.000000 -0.780161 -0.000000 -0.932513 -0.468180 -0.000000  0.883615 -0.559772 -0.932513
                                -0.468180 -0.000000 -0.883615 -0.559772

  24.1 -0.00000     3.846238    -0.000000 -0.000000  0.000000  0.000000 -0.559207 -0.000000 -0.000000 -1.367781 -0.000000  0.000000
                                 0.000000 -0.000000 -0.000000  1.505698  1.142953  0.501850  0.000000 -0.793987  0.711882 -1.142953
                                -0.501850 -0.000000 -0.793987 -0.711882


 EXTRA SYMMETRY OF MOS IN SYMMETRY 1:   1 1 2 1 1 1 1 2 1 1   1 1 1 1 2 2 1 1 1 2   2 1 1 1

 Natural orbital dump at molpro section                    2141.2    (Orbital set 2)



 **********************************************************************************************************************************
 DATASETS  * FILE   NREC   LENGTH (MB)   RECORD NAMES
              1      22        2.73       500      610      700      900      950      970     1000      129      960     1100   
                                          VAR    BASINP    GEOM    SYMINP    ZMAT    AOBASIS   BASIS     P2S    ABASIS      S 
                                         1400     1410     1200     1210     1080     1600     1650     1300     1700      960(1)
                                           T        V       H0       H01     AOSYM     SMH    MOLCAS    ERIS     OPER    ABASIS    
                                         1380     5000   
                                         JKOP    MCGRAD    

              2       4        0.36       700     1000     2100     2141   
                                         GEOM     BASIS     RHF     MCSCF   

 PROGRAMS   *        TOTAL     MULTI        HF       INT
 CPU TIMES  *         1.27      0.87      0.03      0.04
 REAL TIME  *         2.98 SEC
 DISK USED  *         9.50 MB      
 **********************************************************************************************************************************


 PROGRAM * OPT (Geometry optimization)     Authors: F. Eckert and H.-J. Werner


 *** Long output written to logfile /home/grichings/water/molpro/gs-opt/water-opt-nosym.log ***


 Geometry optimization using default procedure for command MULTI

 Geometry written to block  1 of record 700

 Making model hessian for cartesian coordinates

 Quadratic Steepest Descent - Minimum Search

 Optimization point  1

 Variable                      Last           Current        Next           Gradient       Hessian
 E(MULTI000) / Hartree       0.00000000   -76.14309584     0.00000000
 GX1 / ANGSTROM              0.00000000     0.00000000     0.00000000     0.00000000    -0.00000000
 GY1 / ANGSTROM              0.00000000     0.00000000    -0.00000000     0.00000000    -0.00000000
 GZ1 / ANGSTROM              0.00000000     0.12127600     0.11520169     0.01578782     0.00000000
 GX2 / ANGSTROM              0.00000000     0.00000000     0.00000000    -0.00000000     0.00000000
 GY2 / ANGSTROM              0.00000000     0.75616000     0.75985978     0.00244091     0.00000000
 GZ2 / ANGSTROM              0.00000000    -0.48510300    -0.48206585    -0.00789391     0.00000000
 GX3 / ANGSTROM              0.00000000     0.00000000     0.00000000    -0.00000000     0.77280272
 GY3 / ANGSTROM              0.00000000    -0.75616000    -0.75985978    -0.00244091     4.66517886
 GZ3 / ANGSTROM              0.00000000    -0.48510300    -0.48206585    -0.00789391     5.40508812
 Convergence:                0.00000000  (line search)     0.01718743     0.01039397  (total)

 Optimization point  2

 Variable                      Last           Current        Next           Gradient       Hessian
 E(MULTI000) / Hartree     -76.14309584   -76.14317986     0.00000000
 GX1 / ANGSTROM              0.00000000     0.00000000     0.00000000     0.00000000    -0.00000000
 GY1 / ANGSTROM              0.00000000    -0.00000000     0.00000000    -0.00000000    -0.00000000
 GZ1 / ANGSTROM              0.12127600     0.11520169     0.11218234     0.00577752     0.00000000
 GX2 / ANGSTROM              0.00000000     0.00000000     0.00000000     0.00000000     0.00000000
 GY2 / ANGSTROM              0.75616000     0.75985978     0.76119147     0.00137194     0.00000000
 GZ2 / ANGSTROM             -0.48510300    -0.48206585    -0.48055617    -0.00288876     0.00000000
 GX3 / ANGSTROM              0.00000000     0.00000000     0.00000000     0.00000000     0.79524021
 GY3 / ANGSTROM             -0.75616000    -0.75985978    -0.76119147    -0.00137194     4.66094772
 GZ3 / ANGSTROM             -0.48510300    -0.48206585    -0.48055617    -0.00288876     5.49268606
 Convergence:                0.00000000  (line search)     0.00784214     0.00388266  (total)

 Optimization point  3

 Variable                      Last           Current        Next           Gradient       Hessian
 E(MULTI000) / Hartree     -76.14317986   -76.14319127     0.00000000
 GX1 / ANGSTROM              0.00000000     0.00000000     0.00000000     0.00000000    -0.00000000
 GY1 / ANGSTROM             -0.00000000     0.00000000    -0.00000000     0.00000000    -0.00000000
 GZ1 / ANGSTROM              0.11520169     0.11218234     0.11215250     0.00012336     0.00000000
 GX2 / ANGSTROM              0.00000000     0.00000000     0.00000000     0.00000000     0.00000000
 GY2 / ANGSTROM              0.75985978     0.76119147     0.76116091     0.00008525     0.00000000
 GZ2 / ANGSTROM             -0.48206585    -0.48055617    -0.48054125    -0.00006168     0.00000000
 GX3 / ANGSTROM              0.00000000     0.00000000     0.00000000     0.00000000     0.80855167
 GY3 / ANGSTROM             -0.75985978    -0.76119147    -0.76116091    -0.00008525     4.66552302
 GZ3 / ANGSTROM             -0.48206585    -0.48055617    -0.48054125    -0.00006168     5.54055772
 Convergence:                0.00000000  (line search)     0.00010694     0.00010228  (total)

 Optimization point  4

 Variable                      Last           Current        Next           Gradient       Hessian
 E(MULTI000) / Hartree     -76.14319127   -76.14319128     0.00000000
 GX1 / ANGSTROM              0.00000000     0.00000000     0.00000000     0.00000000    -0.00000000
 GY1 / ANGSTROM              0.00000000    -0.00000000    -0.00000000     0.00000000     0.00000000
 GZ1 / ANGSTROM              0.11218234     0.11215250     0.11215455     0.00000495     0.00000000
 GX2 / ANGSTROM              0.00000000     0.00000000     0.00000000     0.00000000     0.00000000
 GY2 / ANGSTROM              0.76119147     0.76116091     0.76115368     0.00000856     0.00000000
 GZ2 / ANGSTROM             -0.48055617    -0.48054125    -0.48054228    -0.00000247     0.00000000
 GX3 / ANGSTROM              0.00000000     0.00000000     0.00000000     0.00000000     0.80886303
 GY3 / ANGSTROM             -0.76119147    -0.76116091    -0.76115368    -0.00000856     4.66619976
 GZ3 / ANGSTROM             -0.48055617    -0.48054125    -0.48054228    -0.00000247     5.54141802
 Convergence:                0.00000000  (line search)     0.00001990     0.00000717  (total)

 Optimization point  5

 Variable                      Last           Current        Next           Gradient       Hessian
 E(MULTI000) / Hartree     -76.14319128   -76.14319128     0.00000000
 GX1 / ANGSTROM              0.00000000     0.00000000     0.00000000     0.00000000    -0.00000000
 GY1 / ANGSTROM             -0.00000000    -0.00000000    -0.00000000     0.00000000    -0.00000000
 GZ1 / ANGSTROM              0.11215250     0.11215455     0.11215487    -0.00000026     0.00000000
 GX2 / ANGSTROM              0.00000000     0.00000000     0.00000000     0.00000000     0.00000000
 GY2 / ANGSTROM              0.76116091     0.76115368     0.76115330     0.00000021     0.00000000
 GZ2 / ANGSTROM             -0.48054125    -0.48054228    -0.48054243     0.00000013     0.00000000
 GX3 / ANGSTROM              0.00000000     0.00000000     0.00000000     0.00000000     0.80887989
 GY3 / ANGSTROM             -0.76116091    -0.76115368    -0.76115330    -0.00000021     4.66628848
 GZ3 / ANGSTROM             -0.48054125    -0.48054228    -0.48054243     0.00000013     5.54144154
 Convergence:                0.00000000  (line search)     0.00000126     0.00000023  (total)

 Optimization point  6

 Variable                      Last           Current        Next           Gradient       Hessian
 E(MULTI000) / Hartree     -76.14319128   -76.14319128     0.00000000
 GX1 / ANGSTROM              0.00000000     0.00000000     0.00000000     0.00000000    -0.00000000
 GY1 / ANGSTROM             -0.00000000    -0.00000000     0.00000000    -0.00000000     0.00000000
 GZ1 / ANGSTROM              0.11215455     0.11215487     0.11215487     0.00000000     0.00000000
 GX2 / ANGSTROM              0.00000000     0.00000000     0.00000000     0.00000000     0.00000000
 GY2 / ANGSTROM              0.76115368     0.76115330     0.76115329     0.00000001     0.00000000
 GZ2 / ANGSTROM             -0.48054228    -0.48054243    -0.48054243    -0.00000000     0.00000000
 GX3 / ANGSTROM              0.00000000     0.00000000     0.00000000     0.00000000     0.80887948
 GY3 / ANGSTROM             -0.76115368    -0.76115330    -0.76115329    -0.00000001     4.66629153
 GZ3 / ANGSTROM             -0.48054228    -0.48054243    -0.48054243    -0.00000000     5.54143865
 Convergence:                0.00000000  (line search)     0.00000002     0.00000001  (total)

 END OF GEOMETRY OPTIMIZATION.    TOTAL CPU:         3.6 SEC

 ITER.   ENERGY(OLD)    ENERGY(NEW)      DE          GRADMAX     GRADNORM    GRADRMS     STEPMAX     STEPLEN     STEPRMS
   1   -76.14309584   -76.14317986    -0.00008402  0.00984165  0.01039397  0.00346466  0.01544843  0.01718743  0.00992317
   2   -76.14317986   -76.14319127    -0.00001141  0.00376976  0.00388266  0.00129422  0.00651469  0.00784214  0.00452766
   3   -76.14319127   -76.14319128    -0.00000001  0.00010095  0.00010228  0.00003409  0.00010018  0.00010694  0.00006174
   4   -76.14319128   -76.14319128    -0.00000000  0.00000593  0.00000717  0.00000239  0.00001918  0.00001990  0.00001149
   5   -76.14319128   -76.14319128     0.00000000  0.00000022  0.00000023  0.00000008  0.00000125  0.00000126  0.00000073
   6   -76.14319128   -76.14319128    -0.00000000  0.00000000  0.00000001  0.00000000  0.00000001  0.00000002  0.00000001

 Geometry written to block  1 of record 700


 **********************************************************************************************************************************
 DATASETS  * FILE   NREC   LENGTH (MB)   RECORD NAMES
              1      21        2.77       500      610      700      900      950      970     1000      129      960     1100   
                                          VAR    BASINP    GEOM    SYMINP    ZMAT    AOBASIS   BASIS     P2S    ABASIS      S 
                                         1400     1410     1200     1210     1080     1600     1650     1300     1700     1380   
                                           T        V       H0       H01     AOSYM     SMH    MOLCAS    ERIS     OPER     JKOP   
                                         5000   
                                        MCGRAD    

              2       4        0.36       700     1000     2100     2141   
                                         GEOM     BASIS     RHF     MCSCF   

 PROGRAMS   *        TOTAL      OPTG     MULTI        HF       INT
 CPU TIMES  *         4.61      3.32      0.87      0.03      0.04
 REAL TIME  *        11.17 SEC
 DISK USED  *         9.50 MB      
 **********************************************************************************************************************************


 PROGRAM * HESSIAN

 Computing numerical hessian using default procedure for command MULTI

 Symmetry elements for unique displacements: X  Y  

 Using no symmetry in wavefunction calculations

 Running default procedure: MULTI000


 Numerically approximating hessian using central gradient differences

 Task list generated. Total number of displacements:      9

    5 tasks completed, CPU=     3.72 sec, Elapsed=     7.51 sec

 Numerical MULTI000 hessian completed. CPU-time:     6.74 sec, Elapsed:    13.46 sec

 MULTI hessian saved to record  5300.2

 FREQUENCIES * CALCULATION OF HARMONIC VIBRATIONAL SPECTRA FOR MULTI


 Permanent Dipole Moment [debye]
   1-  3    0.000000   -0.000000   -2.141351

 Dipole Moment Norm    2.1413514 [debye]

 Dipole Moment Derivatives [debye/ang]
                   1             2             3             4             5             6             7             8
         1    -3.6129096     0.0000000     0.0000000     1.8064757     0.0000000     0.0000000     1.8064757    -0.0000000
         2     0.0000000    -2.1781969     0.0000000     0.0000000     1.0891089     0.5585575    -0.0000000     1.0891089
         3     0.0000000     0.0000000    -1.7749528     0.0000000     0.3826307     0.8875623     0.0000000    -0.3826307
                   9
         1     0.0000000
         2    -0.5585575
         3     0.8875623

 Projecting out rotations and translations

   Low Vibration      Wavenumber
        Nr             [1/cm] 
        1                0.00
        2                0.00
        3                0.00
        4                0.00
        5                0.00
        6                0.00

     Vibration        Wavenumber
        Nr             [1/cm] 
        1             1705.12
        2             3835.80
        3             3964.83

 FREQUENCIES * CALCULATION OF NORMAL MODES FOR MULTI


 Atomic Coordinates

  Nr  Atom  Charge       X              Y              Z

   1   O     8.00    0.000000000    0.000000000    0.211941988
   2   H     1.00    0.000000000    1.438371268   -0.908093596
   3   H     1.00    0.000000000   -1.438371268   -0.908093596

 Frequencies dumped to record   5400.2

 Gradient norm at reference geometry: 0.57225D-08

 Normal Modes

                              1 A1        2 A1        3 B2 
 Wavenumbers [cm-1]         1705.12     3835.80     3964.83
 Intensities [km/mol]         81.99        4.67       30.32
 Intensities [relative]      100.00        5.70       36.98
           GX1             -0.00000     0.00000    -0.00000
           GY1             -0.00000    -0.00000    -0.06742
           GZ1             -0.06806     0.04860    -0.00000
           GX2              0.00000    -0.00000    -0.00000
           GY2              0.40934     0.57315     0.53512
           GZ2              0.54013    -0.38576    -0.41669
           GX3             -0.00000     0.00000     0.00000
           GY3             -0.40934    -0.57315     0.53512
           GZ3              0.54013    -0.38576     0.41669


 Normal Modes of low/zero frequencies

                                  1           2           3           4           5
 Wavenumbers [cm-1]            0.00        0.00        0.00        0.00        0.00
 Intensities [km/mol]          0.00        0.00        0.00        0.00        0.00
 Intensities [relative]        0.00        0.00        0.00        0.00        0.00
           GX1              0.00000     0.00000    -0.00000     0.16060     0.19160
           GY1             -0.03414     0.15326     0.16964     0.00000    -0.00000
           GZ1              0.23170     0.03481     0.02059    -0.00000     0.00000
           GX2             -0.07722     0.42934    -0.19856     0.53954    -0.45222
           GY2             -0.03259    -0.09891     0.38485    -0.00000     0.00000
           GZ2              0.23370    -0.28903     0.29697    -0.00000     0.00000
           GX3              0.07715    -0.42895     0.19838     0.54003    -0.45264
           GY3             -0.03259    -0.09891     0.38485    -0.00000     0.00000
           GZ3              0.22971     0.35865    -0.25578    -0.00000     0.00000

                                  6
 Wavenumbers [cm-1]            0.00
 Intensities [km/mol]          0.00
 Intensities [relative]        0.00
           GX1              0.00000
           GY1             -0.06728
           GZ1              0.01362
           GX2              0.51652
           GY2              0.22529
           GZ2              0.38935
           GX3             -0.51605
           GY3              0.22529
           GZ3             -0.36210


 Zero point energy:  0.02165569 [H]     4752.87 [1/CM]       56.86 [KJ/MOL]
 Frequency information read from record  5400.2

 Recomputing wavefunction at initial geometry


 **********************************************************************************************************************************
 DATASETS  * FILE   NREC   LENGTH (MB)   RECORD NAMES
              1      21        2.77       500      610      700      900      950      970     1000      129      960     1100   
                                          VAR    BASINP    GEOM    SYMINP    ZMAT    AOBASIS   BASIS     P2S    ABASIS      S 
                                         1400     1410     1200     1210     1080     1600     1650     1300     1700     1380   
                                           T        V       H0       H01     AOSYM     SMH    MOLCAS    ERIS     OPER     JKOP   
                                         5000   
                                        MCGRAD    

              2       7        0.37       700     1000     2100     2141     5300     5400     5450   
                                         GEOM     BASIS     RHF     MCSCF    HESS     FREQ     NMOD   

 PROGRAMS   *        TOTAL      FREQ      OPTG     MULTI        HF       INT
 CPU TIMES  *        11.16      6.53      3.32      0.87      0.03      0.04
 REAL TIME  *        25.82 SEC
 DISK USED  *         9.76 MB      
 **********************************************************************************************************************************

 Dump information in style XYZ to water-opt-nosym.dat                                                             


 **********************************************************************************************************************************


 PROGRAM * MATROP


 Orbitals OLDORBITALS read from record   2141.2  Type=MCSCF/NATURAL (state 1.1)

 Matrix OLDORBITALS written to file orbitalfile.orb                 


 **********************************************************************************************************************************
 DATASETS  * FILE   NREC   LENGTH (MB)   RECORD NAMES
              1      21        2.77       500      610      700      900      950      970     1000      129      960     1100   
                                          VAR    BASINP    GEOM    SYMINP    ZMAT    AOBASIS   BASIS     P2S    ABASIS      S 
                                         1400     1410     1200     1210     1080     1600     1650     1300     1700     1380   
                                           T        V       H0       H01     AOSYM     SMH    MOLCAS    ERIS     OPER     JKOP   
                                         5000   
                                        MCGRAD    

              2       7        0.37       700     1000     2100     2141     5300     5400     5450   
                                         GEOM     BASIS     RHF     MCSCF    HESS     FREQ     NMOD   

 PROGRAMS   *        TOTAL    MATROP      FREQ      OPTG     MULTI        HF       INT
 CPU TIMES  *        11.21      0.01      6.53      3.32      0.87      0.03      0.04
 REAL TIME  *        26.16 SEC
 DISK USED  *         9.76 MB      
 **********************************************************************************************************************************

     OPTG(MULTI)        MULTI           HF-SCF  
    -76.14319128    -76.14309584    -76.02147830
 **********************************************************************************************************************************
 Variable memory released
